ITEM: TIMESTEP
43000000
ITEM: NUMBER OF ATOMS
4000
ITEM: BOX BOUNDS pp pp pp
-1.5547531100000000e+02 6.5452468899999997e+02
-5.4291198999999999e+01 7.5570880099999999e+02
-7.9643608000000000e+01 7.3035639200000003e+02
ITEM: ATOMS id type xu yu zu c_quat[1] c_quat[2] c_quat[3] c_quat[4] 
1 3 -133.518 30.3825 -10.2102 0.296247 0.751054 -0.559306 0.187969 
2 1 -133.143 30.1426 -10.5126 0.132751 0.564063 -0.743461 0.333879 
3 3 -132.807 29.7215 -10.6411 0.0121038 0.276027 -0.882127 0.381463 
4 3 -132.68 29.2126 -10.7369 -0.0540463 0.0234123 -0.903158 0.42525 
5 3 -132.841 28.7623 -10.8563 -0.176133 -0.301812 -0.85509 0.383025 
6 3 -133.033 28.3185 -11.1208 0.275625 0.581218 0.727753 -0.237891 
7 2 -133.19 28.0141 -11.5619 0.22678 0.742994 0.618868 -0.116331 
8 1 -133.388 27.9019 -12.0119 0.159084 0.908539 0.374903 -0.0932539 
9 3 -133.581 27.9993 -12.4838 0.123655 0.987541 0.0435006 -0.0870646 
10 1 -133.556 28.1161 -13.0838 0.126152 0.965942 -0.197599 0.109531 
11 3 -133.39 28.119 -13.6018 0.119201 0.891079 -0.387624 0.203754 
12 4 -133.041 27.9936 -13.9536 0.17845 0.67465 -0.657925 0.283087 
13 2 -132.627 27.5777 -14.2232 0.152205 0.404055 -0.840727 0.326728 
14 4 -132.396 27.1345 -14.2604 0.00546422 0.156653 -0.8907 0.426711 
15 1 -132.326 26.6077 -14.2975 -0.0630754 -0.121463 -0.859597 0.492302 
16 4 -132.52 26.1309 -14.2865 0.2224 0.362881 0.800279 -0.422385 
17 3 -132.849 25.7528 -14.4184 0.224405 0.595896 0.593238 -0.492564 
18 2 -133.262 25.5164 -14.6334 0.416858 0.761165 0.347146 -0.355453 
19 1 -133.571 25.3056 -15.0303 0.384481 0.882853 0.129204 -0.236753 
20 3 -133.739 25.1327 -15.4925 0.338918 0.931811 -0.0982017 -0.0849697 
21 4 -133.759 25.0664 -16.0156 0.18755 0.925747 -0.312256 0.101555 
22 4 -133.559 24.9819 -16.5793 0.216463 0.81751 -0.473442 0.24632 
23 2 -133.199 24.761 -16.8852 0.138297 0.591871 -0.70932 0.35697 
24 4 -132.85 24.4114 -16.9464 -0.0117817 0.324352 -0.870688 0.369539 
25 1 -132.636 23.9245 -16.9825 -0.085486 0.0671777 -0.864638 0.490489 
26 4 -132.644 23.4304 -16.9343 -0.211898 -0.201104 -0.825903 0.482224 
27 1 -132.81 22.9165 -17.0361 0.31503 0.484799 0.741366 -0.340738 
28 2 -133.055 22.5679 -17.3074 0.301948 0.687516 0.596329 -0.283799 
29 3 -133.225 22.2031 -17.678 0.361683 0.857207 0.359889 -0.0697252 
30 3 -133.281 22.0108 -18.1376 0.238549 0.939228 0.243605 0.0400173 
31 1 -133.348 22.1723 -18.6131 0.241155 0.957846 -0.148846 0.0471191 
32 2 -133.125 22.1855 -19.1128 0.212656 0.841759 -0.459593 0.187067 
33 3 -132.762 22.0859 -19.3966 0.0550463 0.691451 -0.670686 0.262765 
34 4 -132.498 21.8321 -19.7725 0.0138366 0.597836 -0.705635 0.380106 
35 2 -132.167 21.4814 -19.9365 -0.0486866 0.372861 -0.818662 0.434046 
36 3 -131.912 21.011 -19.9356 -0.235114 0.102375 -0.856713 0.447531 
37 2 -131.919 20.5102 -19.9535 0.318665 0.188357 0.828774 -0.419652 
38 2 -131.933 20.0312 -19.9929 0.435206 0.462946 0.726177 -0.262572 
39 3 -132.065 19.5664 -20.3497 0.478451 0.631247 0.608575 -0.0474304 
40 1 -132.104 19.2844 -20.7128 0.377873 0.826896 0.415898 0.0219846 
41 2 -132 19.2463 -21.2761 0.277792 0.949175 0.0802137 0.124357 
42 2 -131.764 19.2664 -21.7695 0.260063 0.883805 -0.250445 0.297545 
43 4 -131.384 19.1493 -22.0702 0.0591266 0.834911 -0.311811 0.449668 
44 3 -130.883 19.1231 -22.297 -0.0849112 0.705323 -0.479691 0.514982 
45 1 -130.369 18.9194 -22.2626 -0.211122 0.451236 -0.669537 0.55094 
46 3 -129.998 18.5392 -22.2386 -0.264632 0.266489 -0.708515 0.597461 
47 1 -129.666 18.0658 -22.1062 -0.297162 0.0167487 -0.83054 0.470763 
48 4 -129.616 17.5582 -22.0514 0.42981 0.25018 0.774054 -0.391808 
49 2 -129.57 17.0016 -22.0924 0.530449 0.450496 0.680609 -0.229017 
50 3 -129.45 16.5322 -22.2971 0.474998 0.639669 0.603691 -0.0275222 
51 1 -129.406 16.3762 -22.8474 0.439722 0.825893 0.287672 0.204425 
52 1 -129.087 16.2332 -23.3169 0.302597 0.855066 0.155609 0.391258 
53 3 -128.716 16.3 -23.6893 0.134522 0.844354 -0.130798 0.501859 
54 3 -128.265 16.466 -23.9152 -0.00372604 0.782262 -0.296904 0.547631 
55 3 -127.835 16.5835 -23.9727 -0.185806 0.655897 -0.52103 0.513617 
56 2 -127.333 16.472 -23.7738 -0.375489 0.417833 -0.718251 0.410536 
57 3 -126.898 16.2264 -23.7234 -0.46964 0.179564 -0.830933 0.238212 
58 1 -126.499 15.9161 -23.8844 0.439915 0.0116228 0.849341 -0.291477 
59 3 -126.437 15.3514 -23.9997 0.547303 0.299876 0.767781 -0.145075 
60 2 -126.303 14.9576 -24.413 0.480515 0.528175 0.69821 0.0513727 
61 1 -126.127 14.7782 -24.8852 0.38267 0.729515 0.541501 0.167777 
62 2 -126.028 14.8246 -25.4436 0.270129 0.870111 0.297301 0.285568 
63 3 -125.768 14.913 -25.9329 0.146573 0.908221 0.0413057 0.389802 
64 2 -125.298 15.0324 -26.241 0.0661247 0.845114 -0.198165 0.492077 
65 1 -124.807 15.1589 -26.3791 -0.110467 0.749444 -0.303149 0.578127 
66 1 -124.329 15.3129 -26.1746 -0.348039 0.567852 -0.562117 0.490344 
67 2 -123.845 15.1492 -26.043 -0.453404 0.3322 -0.715505 0.414874 
68 4 -123.476 14.873 -25.9436 -0.531363 0.082681 -0.783779 0.310658 
69 3 -123.172 14.4708 -26.009 -0.567654 -0.218637 -0.791395 0.0605074 
70 1 -122.956 14.0833 -26.2758 0.555285 0.452752 0.697415 0.0169551 
71 1 -122.71 13.8038 -26.7296 0.45122 0.637645 0.594871 0.189574 
72 1 -122.333 13.6727 -27.2061 0.366274 0.688061 0.436904 0.448922 
73 4 -122.02 13.8135 -27.6359 0.115384 0.792471 0.296172 0.520537 
74 4 -121.696 14.1417 -27.9223 -0.0771287 0.813128 0.113124 0.565753 
75 3 -121.322 14.5671 -28.0012 -0.279349 0.772024 -0.150271 0.550782 
76 4 -120.78 14.8189 -28.0046 -0.333767 0.675183 -0.432325 0.495805 
77 3 -120.281 14.9088 -27.8083 -0.498346 0.491323 -0.570066 0.430438 
78 1 -119.813 14.7422 -27.6826 -0.588019 0.170563 -0.722725 0.320642 
79 4 -119.352 14.4927 -27.7371 -0.503895 -0.0526998 -0.793371 0.337454 
80 2 -119.126 14.0518 -27.8525 0.513775 0.342514 0.778918 -0.109575 
81 3 -118.764 13.6927 -28.2321 0.4574 0.441542 0.769771 0.0572572 
82 1 -118.656 13.4679 -28.6401 0.407892 0.697931 0.575362 0.124398 
83 1 -118.404 13.3513 -29.1182 0.298599 0.811051 0.385622 0.323002 
84 3 -118.14 13.3937 -29.5889 0.207631 0.848435 0.0813195 0.480037 
85 2 -117.798 13.5082 -29.9485 -0.0516876 0.863299 -0.0126862 0.501878 
86 4 -117.282 13.7669 -30.142 -0.123381 0.783605 -0.263462 0.548934 
87 1 -116.702 13.8891 -30.124 -0.214365 0.641534 -0.488632 0.551109 
88 2 -116.171 13.8528 -29.9755 -0.37722 0.380257 -0.704829 0.465109 
89 3 -115.702 13.5275 -29.9529 -0.418046 0.10128 -0.801768 0.414907 
90 2 -115.533 13.0212 -29.8862 -0.530797 -0.232365 -0.778572 0.241011 
91 2 -115.372 12.5972 -30.0755 0.469347 0.410702 0.751157 -0.216334 
92 1 -115.33 12.13 -30.4322 0.509443 0.600967 0.61498 -0.033263 
93 1 -115.277 11.8692 -30.947 0.504237 0.765162 0.329441 0.227465 
94 4 -114.916 11.7084 -31.3877 0.422761 0.778327 0.21747 0.410106 
95 4 -114.524 11.7156 -31.7452 0.291372 0.803258 0.00724318 0.519448 
96 1 -114.079 11.7976 -31.914 0.0769622 0.753183 -0.284554 0.588066 
97 3 -113.539 11.6646 -31.9493 -0.0290397 0.602873 -0.462108 0.649736 
98 2 -113.024 11.4552 -31.7627 -0.190212 0.41925 -0.503609 0.731045 
99 3 -112.702 11.1665 -31.3715 -0.406631 0.165177 -0.56743 0.6967 
100 3 -112.543 10.7631 -31.0596 -0.581658 -0.0567505 -0.661103 0.470528 
101 4 -112.431 10.3011 -30.9032 -0.629721 -0.3444 -0.546248 0.431802 
102 1 -112.399 9.71004 -30.9721 0.640623 0.494022 0.519221 -0.275597 
103 3 -112.448 9.22771 -31.2964 0.646987 0.654665 0.389462 0.0337664 
104 4 -112.278 9.03537 -31.7246 0.593004 0.766631 0.04059 0.24285 
105 1 -111.947 8.67975 -32.001 0.450652 0.751329 -0.112491 0.468788 
106 1 -111.463 8.37634 -32.1013 0.304166 0.674809 -0.190346 0.644891 
107 1 -111.012 8.30167 -31.9939 0.0288794 0.517604 -0.412775 0.748912 
108 2 -110.65 7.95439 -31.7807 -0.027414 0.312577 -0.498882 0.807874 
109 2 -110.429 7.66876 -31.3808 -0.208449 0.0399557 -0.599667 0.771591 
110 1 -110.373 7.2863 -31.0742 -0.396079 -0.131576 -0.600107 0.682408 
111 2 -110.488 6.82896 -30.8813 -0.527639 -0.301447 -0.535885 0.586135 
112 2 -110.602 6.3737 -30.7708 0.641154 0.453703 0.433484 -0.441776 
113 4 -110.694 5.76069 -30.9306 0.770236 0.578689 0.256821 -0.0768093 
114 3 -110.537 5.20923 -31.0225 0.675843 0.679992 0.252073 0.131557 
115 2 -110.222 4.75974 -31.1878 0.528684 0.744624 0.281936 0.294179 
116 1 -109.865 4.77339 -31.5654 0.298272 0.840358 0.0583676 0.448805 
117 1 -109.377 4.73865 -31.8002 0.231396 0.723007 -0.249761 0.601112 
118 3 -108.868 4.76009 -31.7506 -0.00305696 0.575121 -0.491453 0.653989 
119 4 -108.455 4.72313 -31.5423 -0.298834 0.454978 -0.572226 0.613393 
120 3 -107.981 4.39544 -31.3274 -0.361813 0.267334 -0.77706 0.44023 
121 4 -107.723 3.87875 -31.2448 -0.481309 -0.0798801 -0.827954 0.276501 
122 2 -107.4 3.50948 -31.4536 -0.400927 -0.217007 -0.844826 0.280062 
123 2 -107.45 3.06047 -31.6374 0.418336 0.52098 0.700454 -0.250875 
124 1 -107.689 2.78466 -31.9835 0.446665 0.791606 0.39808 -0.124027 
125 3 -107.674 2.54184 -32.4754 0.409442 0.889816 0.178135 0.094093 
126 1 -107.442 2.33836 -32.9283 0.342521 0.902063 -0.00814388 0.262478 
127 4 -107.121 2.26483 -33.3453 0.194506 0.854868 -0.237709 0.418166 
128 3 -106.646 2.25143 -33.5383 0.0118983 0.724742 -0.496522 0.47757 
129 3 -106.191 2.05083 -33.707 -0.00895023 0.632626 -0.516919 0.576628 
130 3 -105.699 1.91916 -33.5698 -0.206714 0.390605 -0.72712 0.52535 
131 2 -105.337 1.42643 -33.4968 -0.259179 0.133354 -0.876907 0.3822 
132 3 -105.19 0.891422 -33.5569 -0.304063 -0.173414 -0.845953 0.40229 
133 4 -105.307 0.316326 -33.707 -0.315003 -0.445096 -0.756313 0.361459 
134 4 -105.513 -0.145352 -34.0018 0.365263 0.657635 0.618994 -0.225708 
135 3 -105.629 -0.398741 -34.484 0.420593 0.823775 0.379874 -0.0138647 
136 4 -105.586 -0.644292 -34.9249 0.371411 0.907681 0.151852 0.122921 
137 2 -105.436 -0.640726 -35.4307 0.233043 0.926202 -0.15902 0.250105 
138 3 -105.038 -0.571316 -35.8441 0.153828 0.840866 -0.426874 0.295057 
139 2 -104.65 -0.64218 -36.1299 0.00922233 0.71151 -0.545992 0.442222 
140 4 -104.127 -0.694433 -36.1665 -0.0784079 0.50475 -0.749247 0.421554 
141 3 -103.654 -1.07108 -36.1795 -0.210247 0.28606 -0.876945 0.323935 
142 2 -103.435 -1.5109 -36.411 -0.194216 -0.0423495 -0.934735 0.294546 
143 1 -103.538 -2.01273 -36.7607 -0.170277 -0.389814 -0.894563 0.137144 
144 4 -103.682 -2.29976 -37.2633 0.0791851 0.646994 0.758018 0.0231802 
145 4 -103.88 -2.38641 -37.6182 0.0129643 0.854915 0.504601 -0.119707 
146 2 -104.07 -2.26373 -38.1123 -0.0446291 0.953887 0.296452 -0.0149411 
147 1 -104.202 -1.93888 -38.4977 -0.0687061 0.997634 0.00214938 -0.00102759 
148 2 -104.075 -1.5885 -38.8475 -0.153153 0.948616 -0.276878 -0.00316752 
149 1 -103.829 -1.34173 -39.3016 -0.100103 0.829176 -0.546708 0.0596495 
150 2 -103.533 -1.27515 -39.7333 -0.136435 0.654613 -0.731549 0.133054 
151 1 -103.101 -1.47435 -40.0797 -0.0953575 0.441727 -0.881277 0.138326 
152 1 -102.833 -1.70007 -40.4033 -0.153196 0.157229 -0.934863 0.279 
153 3 -102.702 -2.1682 -40.5064 -0.257637 -0.0831909 -0.9417 0.199761 
154 4 -102.583 -2.61045 -40.7796 -0.230594 -0.346598 -0.883579 0.21444 
155 3 -102.702 -3.02787 -41.1695 0.166223 0.561548 0.791877 -0.173104 
156 1 -102.998 -3.2381 -41.5608 0.0664258 0.783808 0.595788 -0.16208 
157 3 -103.311 -3.15763 -41.9901 0.132263 0.956757 0.238704 -0.100716 
158 2 -103.406 -3.107 -42.5257 0.257812 0.962357 -0.041144 0.0755578 
159 3 -103.213 -2.99874 -43.019 0.178437 0.914519 -0.342028 0.121785 
160 4 -102.883 -3.08024 -43.5011 0.149936 0.795338 -0.550696 0.204181 
161 2 -102.565 -3.24198 -43.8149 0.0315671 0.561867 -0.766962 0.308348 
162 4 -102.233 -3.60986 -44.0517 0.0120617 0.373756 -0.848317 0.37486 
163 1 -102.028 -4.14294 -44.0639 -0.112733 0.0257032 -0.917152 0.381396 
164 4 -102.156 -4.71021 -44.1656 -0.211221 -0.308002 -0.869954 0.322025 
165 4 -102.35 -5.13834 -44.3379 -0.390054 -0.559126 -0.698019 0.219102 
166 2 -102.474 -5.50618 -44.6996 0.469791 0.736121 0.486922 -0.0181387 
167 1 -102.447 -5.70509 -45.173 0.440393 0.838419 0.262119 0.185478 
168 2 -102.284 -5.88622 -45.6249 0.262727 0.907841 0.276598 0.174046 
169 3 -101.996 -5.76328 -46.0932 0.129857 0.932143 -0.0201806 0.3374 
170 1 -101.619 -5.62665 -46.3002 -0.0482528 0.896188 -0.255418 0.359557 
171 3 -101.08 -5.51822 -46.498 -0.0810008 0.754616 -0.533351 0.373538 
172 2 -100.601 -5.60192 -46.5257 -0.284682 0.530418 -0.731727 0.319669 
173 2 -100.111 -5.94238 -46.537 -0.388995 0.277319 -0.818328 0.319556 
174 1 -99.8008 -6.41197 -46.6522 -0.420977 -0.0507325 -0.88394 0.197116 
175 1 -99.681 -6.9235 -47.0197 -0.333223 -0.373071 -0.865897 0.0019405 
176 3 -99.6155 -7.18069 -47.5052 -0.266561 -0.62513 -0.72714 -0.0970832 
177 3 -99.6624 -7.18895 -48.1035 0.199088 0.824437 0.474688 0.235242 
178 2 -99.5259 -7.05812 -48.6598 0.028501 0.919129 0.204329 0.335616 
179 1 -99.2037 -6.69727 -49.0188 -0.197703 0.87816 0.0455644 0.433211 
180 3 -98.8385 -6.33247 -49.1716 -0.332644 0.792138 -0.144808 0.490811 
181 2 -98.4494 -6.0833 -48.9545 -0.414751 0.71777 -0.509837 0.229899 
182 4 -97.9004 -6.06646 -49.0305 -0.467671 0.479655 -0.71773 0.189943 
183 1 -97.4372 -6.13724 -49.1968 -0.446728 0.207747 -0.840181 0.226652 
184 2 -97.021 -6.44164 -49.4613 -0.41394 -0.0485171 -0.904045 0.0948776 
185 3 -96.7603 -6.79298 -49.8287 -0.375852 -0.256448 -0.885112 -0.0977069 
186 3 -96.7031 -7.0226 -50.3611 -0.307677 -0.480409 -0.80412 -0.16713 
187 1 -96.734 -7.05921 -50.8627 -0.251937 -0.736868 -0.575016 -0.250819 
188 1 -96.6031 -7.0226 -51.3562 0.119037 0.823502 0.475329 0.285897 
189 2 -96.4843 -6.72597 -51.7647 0.0320273 0.933122 0.159518 0.320642 
190 4 -96.2192 -6.48019 -52.1027 -0.0982393 0.916384 -0.0171256 0.387681 
191 2 -95.8098 -6.13467 -52.2862 -0.17076 0.836411 -0.376171 0.360213 
192 4 -95.3083 -5.97357 -52.1987 -0.395197 0.640935 -0.579929 0.310973 
193 2 -94.7492 -6.04218 -52.1551 -0.46121 0.348112 -0.770257 0.269827 
194 2 -94.2976 -6.26849 -52.2379 -0.483772 0.046954 -0.8361 0.254356 
195 3 -93.9334 -6.72505 -52.4119 -0.41908 -0.199031 -0.882812 0.0734952 
196 3 -93.7474 -7.12556 -52.7604 -0.34905 -0.439075 -0.824336 0.0764643 
197 3 -93.8138 -7.38868 -53.3312 -0.360681 -0.696077 -0.597673 -0.167846 
198 1 -93.7218 -7.41364 -53.8434 0.305313 0.839816 0.375828 0.24545 
199 3 -93.5365 -7.25236 -54.3446 0.198674 0.905194 0.113846 0.35804 
200 3 -93.2025 -7.13089 -54.657 0.0527206 0.894885 -0.127095 0.424557 
201 4 -92.743 -6.9527 -54.8075 -0.117007 0.78292 -0.413433 0.449909 
202 1 -92.1966 -6.85144 -54.7339 -0.30678 0.625086 -0.569767 0.436486 
203 3 -91.7207 -6.96017 -54.5928 -0.493006 0.354894 -0.681365 0.408335 
204 1 -91.2998 -7.34874 -54.5157 -0.522838 0.0842222 -0.780822 0.331456 
205 4 -90.9341 -7.74423 -54.4618 -0.556179 -0.073665 -0.80455 0.194776 
206 3 -90.6959 -8.21484 -54.736 -0.53853 -0.338239 -0.768448 -0.0711831 
207 3 -90.5643 -8.48825 -55.1579 -0.465053 -0.60199 -0.626744 -0.168893 
208 1 -90.3699 -8.62901 -55.6142 -0.360299 -0.744524 -0.436295 -0.354282 
209 3 -90.0196 -8.56929 -56.0087 -0.187403 -0.819857 -0.279274 -0.463381 
210 1 -89.671 -8.44646 -56.3226 -0.0414546 0.829295 0.112337 0.545832 
211 4 -89.2314 -8.05645 -56.3949 -0.241502 0.819982 -0.138182 0.500212 
212 3 -88.7777 -7.78426 -56.3325 -0.340282 0.704683 -0.413183 0.465735 
213 1 -88.2768 -7.6738 -56.1841 -0.466544 0.510368 -0.576915 0.434776 
214 3 -87.7748 -7.86814 -55.8836 -0.544748 0.260703 -0.73123 0.317154 
215 2 -87.3168 -8.16685 -55.9351 -0.554829 0.0231919 -0.831551 -0.0122254 
216 4 -86.8987 -8.40648 -56.1208 -0.479717 -0.208471 -0.843421 -0.122691 
217 2 -86.6406 -8.63653 -56.5329 -0.388824 -0.443852 -0.78875 -0.172294 
218 4 -86.4759 -8.71526 -57.1122 -0.252405 -0.656196 -0.629823 -0.330183 
219 3 -86.2656 -8.56352 -57.5853 -0.0411011 -0.779422 -0.428947 -0.45477 
220 3 -86.1415 -8.2359 -57.9347 0.138741 -0.86682 -0.188572 -0.440244 
221 2 -85.836 -7.73435 -58.029 -0.267655 0.872297 -0.132605 0.387136 
222 2 -85.4132 -7.41719 -58.11 -0.361879 0.774745 -0.367309 0.36592 
223 3 -84.9269 -7.20102 -58.1149 -0.433393 0.632728 -0.546296 0.336729 
224 3 -84.3926 -7.2088 -57.9265 -0.523031 0.385791 -0.748781 0.130121 
225 3 -83.9534 -7.42569 -57.9778 -0.565528 0.115319 -0.816561 -0.0104222 
226 3 -83.5464 -7.63403 -58.1003 -0.528591 -0.12983 -0.827771 -0.136128 
227 1 -83.1449 -7.80112 -58.4753 -0.420049 -0.324621 -0.792877 -0.29921 
228 4 -82.858 -7.78329 -58.9746 -0.228772 -0.493289 -0.766966 -0.340722 
229 3 -82.7364 -7.69339 -59.4362 -0.113247 -0.724125 -0.544277 -0.408143 
230 3 -82.5705 -7.36063 -59.8167 -0.101449 0.835225 0.354068 0.408341 
231 4 -82.4727 -6.86257 -60.0118 -0.150181 0.908584 0.00951257 0.389655 
232 1 -82.1202 -6.53374 -60.1584 -0.364494 0.84767 -0.174845 0.343553 
233 1 -81.6878 -6.21494 -60.2425 -0.445716 0.716623 -0.375162 0.383462 
234 4 -81.1677 -6.15656 -60.2588 -0.478242 0.515588 -0.636218 0.317302 
235 1 -80.6176 -6.20516 -60.2738 -0.467366 0.384006 -0.764528 0.222722 
236 3 -80.1652 -6.40699 -60.3066 -0.492694 0.0570241 -0.860911 0.113279 
237 4 -79.8169 -6.80069 -60.4642 -0.414 -0.16728 -0.885106 0.131182 
238 4 -79.7628 -7.15419 -60.9212 -0.381635 -0.496424 -0.776002 -0.0757486 
239 4 -79.7085 -7.32092 -61.4118 -0.354018 -0.716138 -0.546147 -0.252073 
240 1 -79.5776 -7.17816 -61.9527 -0.288813 -0.849108 -0.227504 -0.37927 
241 4 -79.2174 -7.155 -62.247 0.102636 0.859669 0.108613 0.488506 
242 1 -78.7822 -6.85997 -62.4569 -0.067684 0.842687 -0.167956 0.507038 
243 2 -78.3711 -6.65642 -62.5727 -0.259926 0.740706 -0.362705 0.502233 
244 1 -77.821 -6.57528 -62.4989 -0.376429 0.572952 -0.545733 0.481874 
245 2 -77.4012 -6.75404 -62.3064 -0.549861 0.334391 -0.637438 0.423685 
246 1 -76.951 -7.06957 -62.1951 -0.574713 0.114002 -0.796143 0.15121 
247 4 -76.5317 -7.4448 -62.3466 -0.51256 -0.188402 -0.823802 0.152108 
248 3 -76.402 -7.90364 -62.5808 -0.571566 -0.456371 -0.680734 -0.0404882 
249 4 -76.2292 -8.24079 -63.0313 -0.496811 -0.631636 -0.569787 -0.171924 
250 1 -76.0808 -8.49606 -63.4133 -0.399943 -0.747926 -0.41196 -0.333079 
251 2 -75.8742 -8.4108 -63.8791 0.20359 0.85626 0.193613 0.433457 
252 4 -75.4665 -8.13724 -64.1782 0.083116 0.825196 -0.163227 0.534322 
253 3 -74.9247 -8.22626 -64.3252 0.00841986 0.708452 -0.281242 0.647247 
254 2 -74.3546 -8.33043 -64.1741 -0.128066 0.503585 -0.59719 0.611036 
255 2 -73.9489 -8.60749 -63.9517 -0.324942 0.249287 -0.610156 0.678217 
256 2 -73.7459 -8.93884 -63.7505 -0.483391 -0.00288819 -0.621547 0.616446 
257 2 -73.6851 -9.45564 -63.4984 -0.566289 -0.165645 -0.612344 0.526226 
258 3 -73.7039 -10.018 -63.3348 -0.712126 -0.326156 -0.554468 0.281184 
259 4 -73.5707 -10.5274 -63.4249 -0.627724 -0.594055 -0.483564 0.138663 
260 1 -73.6098 -10.8863 -63.7797 -0.625882 -0.733322 -0.265083 -0.0155279 
261 1 -73.4447 -11.2037 -64.1719 -0.501216 -0.82026 -0.10385 -0.255285 
262 2 -73.1477 -11.2808 -64.5374 -0.39684 -0.821524 0.183078 -0.366195 
263 2 -72.733 -11.4676 -64.7276 0.198942 0.705971 -0.390327 0.556482 
264 4 -72.2082 -11.747 -64.776 0.0714609 0.498813 -0.507523 0.698927 
265 3 -71.7727 -12.0278 -64.5871 -0.054509 0.357277 -0.582368 0.728168 
266 2 -71.5375 -12.2819 -64.2341 -0.336057 0.10175 -0.632476 0.690426 
267 2 -71.5538 -12.6524 -63.9226 -0.561734 -0.115008 -0.585741 0.572831 
268 2 -71.5462 -13.1067 -63.7073 -0.655111 -0.287671 -0.52967 0.455549 
269 2 -71.5275 -13.5686 -63.6695 -0.762694 -0.452946 -0.404187 0.223094 
270 2 -71.5326 -14.0579 -63.7401 -0.676429 -0.661965 -0.318946 0.0501984 
271 3 -71.3904 -14.5453 -64.0593 -0.678862 -0.679961 -0.149628 -0.233261 
272 2 -71.1121 -14.8205 -64.3931 -0.489991 -0.777123 -0.0244426 -0.394198 
273 2 -70.7318 -14.8441 -64.7333 -0.308002 -0.796205 0.179541 -0.488833 
274 1 -70.2526 -14.8721 -64.8456 -0.0952168 -0.673129 0.418634 -0.602143 
275 2 -69.7864 -14.956 -64.7374 -0.141659 0.534114 -0.533273 0.640527 
276 2 -69.3391 -15.1118 -64.5836 -0.223264 0.34071 -0.693916 0.593759 
277 1 -69.0386 -15.4991 -64.4466 -0.374183 0.122266 -0.748318 0.533908 
278 4 -68.8878 -15.9752 -64.3272 -0.576426 -0.161364 -0.734223 0.320329 
279 1 -68.6164 -16.3494 -64.4905 -0.49637 -0.316385 -0.748153 0.306242 
280 3 -68.5561 -16.8886 -64.7609 -0.4356 -0.582245 -0.677675 0.109545 
281 4 -68.551 -17.2144 -65.1364 -0.429483 -0.732038 -0.528251 -0.02482 
282 2 -68.5846 -17.3448 -65.6097 -0.3042 -0.899356 -0.301517 -0.0877989 
283 1 -68.4795 -17.3259 -66.1418 -0.242904 -0.952366 -0.0456853 -0.178632 
284 1 -68.2364 -17.3359 -66.5958 -0.101743 -0.945441 0.10388 -0.291545 
285 2 -67.8411 -17.1563 -66.9152 -0.0733097 0.888311 -0.280535 0.356132 
286 2 -67.242 -17.0182 -67.0148 -0.164168 0.718955 -0.541893 0.403118 
287 3 -66.7809 -17.0875 -66.9122 -0.42231 0.481383 -0.628718 0.441179 
288 4 -66.24 -17.3306 -66.7864 -0.47838 0.216858 -0.765318 0.372041 
289 1 -65.905 -17.6998 -66.6556 -0.54778 -0.0548036 -0.821845 0.146644 
290 4 -65.6226 -18.1267 -66.8018 -0.548268 -0.341844 -0.763236 0.0040665 
291 1 -65.4641 -18.4834 -67.1603 -0.492226 -0.537247 -0.675537 -0.112824 
292 1 -65.2276 -18.7163 -67.6834 -0.427198 -0.683047 -0.489402 -0.333818 
293 4 -64.8989 -18.7074 -68.0939 -0.282764 -0.792535 -0.297903 -0.450762 
294 2 -64.5933 -18.4937 -68.46 -0.0447359 -0.819559 -0.0831081 -0.565167 
295 1 -64.0373 -18.2152 -68.6189 -0.117559 0.746087 -0.181819 0.629664 
296 1 -63.5851 -17.9299 -68.4396 -0.426806 0.636045 -0.318393 0.558489 
297 1 -63.2342 -17.7478 -68.1565 -0.620589 0.459528 -0.494415 0.399071 
298 4 -62.7555 -17.731 -67.9048 -0.650416 0.32717 -0.571631 0.378361 
299 4 -62.3923 -18.0435 -67.6854 -0.730017 0.118394 -0.648668 0.179691 
300 4 -61.9219 -18.3322 -67.6157 -0.672777 -0.125988 -0.728065 -0.037674 
301 4 -61.566 -18.6129 -67.7716 -0.598276 -0.341393 -0.681789 -0.246332 
302 2 -61.0068 -18.6695 -68.0284 -0.459946 -0.363446 -0.699899 -0.40804 
303 1 -60.6861 -18.522 -68.4189 -0.285641 -0.593029 -0.545947 -0.518331 
304 4 -60.3032 -18.2349 -68.7851 -0.0587609 -0.706494 -0.254141 -0.657895 
305 3 -59.9357 -17.8807 -68.9401 -0.159069 0.702012 0.135851 0.68075 
306 3 -59.5609 -17.5632 -68.9337 -0.311432 0.629387 -0.0267454 0.711454 
307 3 -59.2329 -17.2446 -68.5924 -0.57076 0.497653 -0.192736 0.624041 
308 3 -59.011 -17.0902 -68.1254 -0.744267 0.36811 -0.319022 0.456932 
309 1 -58.7168 -17.2073 -67.6826 -0.847702 0.20871 -0.425178 0.238884 
310 2 -58.2619 -17.3857 -67.3762 -0.796617 0.137029 -0.576854 -0.117748 
311 1 -57.7536 -17.5282 -67.3684 -0.712332 -0.0993858 -0.627823 -0.297564 
312 4 -57.2131 -17.5298 -67.3692 -0.560409 -0.29514 -0.664164 -0.39714 
313 4 -56.7918 -17.435 -67.667 -0.329086 -0.452143 -0.67728 -0.478081 
314 2 -56.3985 -17.2308 -68.0016 -0.0988455 -0.572753 -0.531582 -0.616121 
315 2 -56.1095 -16.7883 -68.1589 0.138781 -0.592926 -0.420204 -0.672761 
316 4 -56.094 -16.2182 -68.1691 -0.356642 0.681255 0.198863 0.607579 
317 1 -55.9437 -15.751 -67.9553 -0.543625 0.675758 -0.0399847 0.49621 
318 2 -55.6382 -15.4017 -67.6787 -0.658339 0.552375 -0.185092 0.476668 
319 2 -55.4354 -15.1907 -67.2823 -0.787713 0.450273 -0.383564 0.172166 
320 2 -55.0286 -15.1094 -66.9661 -0.802826 0.252133 -0.540185 0.0099936 
321 1 -54.4922 -15.1591 -66.7876 -0.717401 0.128807 -0.619838 -0.290769 
322 3 -53.9725 -14.9647 -66.8235 -0.577318 0.118682 -0.718072 -0.370123 
323 1 -53.5721 -14.9314 -67.0371 -0.450457 -0.214187 -0.680192 -0.53717 
324 3 -53.2263 -14.7303 -67.3718 -0.226493 -0.422889 -0.649002 -0.590477 
325 2 -53.0506 -14.3604 -67.7369 0.0761148 -0.600148 -0.514499 -0.607717 
326 4 -52.936 -13.8881 -67.956 0.243094 -0.689481 -0.393355 -0.557488 
327 1 -52.812 -13.345 -67.9834 -0.38889 0.71158 0.12279 0.572137 
328 1 -52.7065 -12.8169 -67.835 -0.595209 0.673537 0.00783538 0.438192 
329 4 -52.6249 -12.4615 -67.5497 -0.72556 0.623813 -0.224121 0.184904 
330 4 -52.2474 -12.1506 -67.2342 -0.757223 0.509018 -0.39965 0.0882792 
331 4 -51.7647 -11.9893 -67.0097 -0.715152 0.368997 -0.588654 -0.0767181 
332 3 -51.2818 -11.9857 -66.9367 -0.655041 0.204982 -0.668898 -0.285447 
333 2 -50.7991 -11.9418 -67.0445 -0.532047 -0.00641004 -0.734269 -0.421586 
334 3 -50.4177 -11.8331 -67.3461 -0.363461 -0.278614 -0.709591 -0.535491 
335 1 -50.0899 -11.5209 -67.6218 -0.117356 -0.450936 -0.588536 -0.660688 
336 3 -49.9054 -11.0725 -67.7989 0.145074 -0.551523 -0.413481 -0.709795 
337 2 -49.8614 -10.5399 -67.8819 -0.393594 0.590234 0.284161 0.64495 
338 1 -49.8479 -10.0638 -67.6603 -0.596263 0.634818 0.0501043 0.488842 
339 1 -49.5968 -9.60479 -67.3761 -0.651243 0.612103 -0.167307 0.416199 
340 3 -49.2598 -9.34364 -67.0143 -0.749328 0.446906 -0.398685 0.282547 
341 4 -48.885 -9.41007 -66.6634 -0.804465 0.272707 -0.526693 0.0325671 
342 1 -48.333 -9.42 -66.4428 -0.705098 0.135973 -0.668138 -0.194782 
343 1 -47.8524 -9.43675 -66.5307 -0.561526 -0.0994423 -0.673753 -0.469953 
344 2 -47.2883 -9.18324 -66.7152 -0.363367 -0.138487 -0.747088 -0.539116 
345 1 -46.9982 -8.88085 -67.0588 -0.148408 -0.311661 -0.705526 -0.618932 
346 2 -46.8425 -8.54527 -67.4365 0.0683664 -0.467746 -0.645191 -0.600223 
347 1 -46.8985 -8.08835 -67.7016 -0.330349 0.625276 0.440103 0.553361 
348 1 -46.8371 -7.4671 -67.639 -0.422303 0.710834 0.110213 0.551568 
349 2 -46.625 -6.94977 -67.4514 -0.542701 0.716944 -0.123905 0.419659 
350 2 -46.1816 -6.611 -67.2461 -0.586539 0.596963 -0.362452 0.410165 
351 4 -45.7457 -6.53614 -67.0172 -0.651512 0.392355 -0.614935 0.208434 
352 3 -45.3287 -6.71309 -66.8252 -0.725368 0.154988 -0.666384 0.0758466 
353 4 -44.8767 -6.99709 -66.7858 -0.715612 -0.0347636 -0.679923 -0.156191 
354 3 -44.3341 -7.09344 -66.8903 -0.597357 -0.214328 -0.67687 -0.372928 
355 2 -43.8882 -7.17562 -67.1868 -0.436639 -0.399927 -0.640487 -0.489062 
356 3 -43.4853 -7.02604 -67.508 -0.20399 -0.560904 -0.463389 -0.655016 
357 4 -43.2546 -6.61214 -67.7631 -0.049644 0.690291 0.273368 0.66806 
358 2 -42.9711 -6.18185 -67.8376 -0.174203 0.735785 -0.00360209 0.654417 
359 2 -42.5182 -5.90687 -67.739 -0.329795 0.64068 -0.0490901 0.691631 
360 3 -42.2533 -5.69371 -67.4498 -0.637824 0.499388 -0.256464 0.527275 
361 2 -41.9295 -5.59411 -67.0355 -0.732596 0.318631 -0.349235 0.489706 
362 4 -41.5105 -5.70579 -66.6183 -0.782378 0.161392 -0.557941 0.224809 
363 2 -41.0307 -5.93437 -66.3398 -0.761627 0.033043 -0.643379 0.0699675 
364 3 -40.5846 -6.22642 -66.3507 -0.675179 -0.167711 -0.652181 -0.301107 
365 1 -40.0535 -6.27985 -66.4418 -0.52535 -0.247974 -0.596578 -0.553724 
366 1 -39.6016 -6.11685 -66.6605 -0.276454 -0.429842 -0.53774 -0.670556 
367 3 -39.2918 -5.73115 -66.8498 0.0235517 0.532468 0.405627 0.742556 
368 3 -39.0143 -5.26247 -66.8053 -0.169801 0.546326 0.347096 0.743115 
369 3 -38.8562 -4.81861 -66.7695 -0.417985 0.621592 0.122674 0.651048 
370 2 -38.7513 -4.35023 -66.5184 -0.650732 0.55788 -0.0374789 0.513725 
371 3 -38.5035 -4.04517 -66.1488 -0.784449 0.436568 -0.169741 0.406493 
372 3 -38.2314 -4.00267 -65.6114 -0.843201 0.390621 -0.322385 0.180264 
373 1 -37.8602 -4.0742 -65.2759 -0.852427 0.215047 -0.462612 -0.114511 
374 4 -37.4574 -4.17352 -65.0791 -0.792631 -0.0644714 -0.523715 -0.305454 
375 4 -36.9828 -4.24482 -65.0415 -0.642228 -0.196282 -0.49315 -0.55301 
376 4 -36.4739 -4.10049 -65.0234 -0.482002 -0.217292 -0.468975 -0.707475 
377 2 -36.0806 -3.80245 -65.1278 0.162825 0.404725 0.423183 0.794105 
378 4 -35.8049 -3.31713 -65.0225 -0.0479664 0.369099 0.472574 0.798836 
379 4 -35.766 -2.81399 -64.9962 -0.418024 0.48667 0.252974 0.724163 
380 1 -35.6074 -2.30954 -64.5942 -0.556065 0.443307 -0.0090295 0.702986 
381 1 -35.4804 -2.11048 -64.1036 -0.762548 0.381041 -0.215385 0.476379 
382 2 -35.1859 -2.03715 -63.6173 -0.8095 0.264328 -0.379763 0.361415 
383 4 -34.9162 -2.25068 -63.1987 -0.904435 0.124408 -0.40596 0.0414358 
384 2 -34.5229 -2.23254 -62.9155 -0.842621 -0.045448 -0.535389 0.0358237 
385 4 -34.1576 -2.54126 -62.8904 -0.770593 -0.287034 -0.51879 -0.233785 
386 3 -33.6491 -2.69975 -62.9208 -0.628875 -0.347238 -0.430966 -0.546087 
387 3 -33.202 -2.58249 -63.0229 -0.4044 -0.487373 -0.244283 -0.734339 
388 1 -32.7531 -2.35429 -63.0055 -0.18434 -0.489716 -0.146822 -0.839429 
389 4 -32.3405 -2.04542 -62.8369 -0.0651771 0.484078 0.00807608 0.872557 
390 3 -32.0027 -1.62311 -62.5348 -0.263855 0.464601 -0.141043 0.833447 
391 4 -31.7834 -1.44343 -62.1129 -0.492025 0.413126 -0.256657 0.722056 
392 3 -31.5359 -1.42628 -61.6097 -0.636176 0.240891 -0.35647 0.640454 
393 3 -31.3968 -1.63756 -61.1381 -0.833802 0.124307 -0.44729 0.298753 
394 1 -31.1207 -1.98038 -60.8546 -0.844314 -0.131476 -0.47857 0.202037 
395 4 -30.907 -2.50231 -60.8016 -0.871634 -0.24546 -0.405728 -0.124055 
396 1 -30.4965 -2.77943 -60.7611 -0.72405 -0.455921 -0.395737 -0.333587 
397 3 -29.9949 -2.98995 -60.967 -0.592421 -0.569357 -0.292409 -0.489251 
398 3 -29.4852 -2.94585 -61.1335 -0.334021 -0.616347 -0.116778 -0.703498 
399 4 -28.9207 -2.82069 -61.0965 0.184334 0.530368 -0.146151 0.814476 
400 3 -28.4784 -2.69591 -60.7844 0.021102 -0.480215 0.162358 -0.861735 
401 3 -28.109 -2.64931 -60.4339 -0.274404 0.342264 -0.373895 0.817166 
402 1 -27.9123 -2.66456 -59.9654 -0.475389 0.235459 -0.486396 0.694249 
403 4 -27.869 -2.76861 -59.5205 -0.713908 0.057487 -0.416232 0.560162 
404 1 -27.7835 -3.1827 -59.0783 -0.805668 -0.174999 -0.48217 0.296289 
405 3 -27.4542 -3.70174 -59.0092 -0.810174 -0.294392 -0.5067 -0.0143821 
406 3 -27.1287 -4.06723 -59.0508 -0.741177 -0.461888 -0.438064 -0.213109 
407 3 -26.6749 -4.31361 -59.2375 -0.590692 -0.596664 -0.313134 -0.443873 
408 4 -26.1751 -4.35066 -59.3668 -0.384079 -0.629677 -0.065338 -0.672102 
409 4 -25.6279 -4.39118 -59.2871 -0.300027 -0.53304 -0.0409909 -0.790046 
410 4 -25.1179 -4.18098 -59.1532 0.0390417 0.527423 -0.11363 0.841064 
411 4 -24.708 -4.05803 -58.8397 -0.204924 0.437942 -0.211473 0.849407 
412 2 -24.4191 -3.94902 -58.4816 -0.420553 0.369587 -0.354466 0.748928 
413 4 -24.247 -4.0235 -57.9943 -0.69146 0.152552 -0.402871 0.579918 
414 1 -23.9481 -4.26114 -57.5733 -0.682756 -0.0414202 -0.512875 0.518736 
415 4 -23.8389 -4.73272 -57.3335 -0.817147 -0.21881 -0.495124 0.198104 
416 4 -23.6362 -5.18883 -57.2474 -0.795507 -0.436458 -0.419015 -0.0331596 
417 2 -23.1447 -5.62728 -57.3417 -0.732798 -0.465648 -0.392929 -0.302962 