ITEM: TIMESTEP
0
ITEM: NUMBER OF ATOMS
10
ITEM: BOX BOUNDS pp pp pp
-2.0000000000000000e+01 2.0000000000000000e+01
-2.0000000000000000e+01 2.0000000000000000e+01
-2.0000000000000000e+01 2.0000000000000000e+01
ITEM: ATOMS id mol type x y z ix iy iz vx vy vz c_quat[1] c_quat[2] c_quat[3] c_quat[4] angmomx angmomy angmomz 
1 1 1 -6.000000e-01  0.000000e+00  0.000000e+00 0 0 0  0.000000e+00  0.000000e+00  0.000000e+00  1.000000e+00  0.000000e+00  0.000000e+00  0.000000e+00  0.000000e+00  0.000000e+00  0.000000e+00 
2 1 2 -4.860250e-01 -3.518234e-01  3.897629e-01 0 0 0  0.000000e+00  0.000000e+00  0.000000e+00  9.513258e-01  0.000000e+00  0.000000e+00  3.081869e-01  0.000000e+00  0.000000e+00  0.000000e+00 
3 1 3 -1.874010e-01 -5.699832e-01  7.795257e-01 0 0 0  0.000000e+00  0.000000e+00  0.000000e+00  8.100416e-01  0.000000e+00  0.000000e+00  5.863724e-01  0.000000e+00  0.000000e+00  0.000000e+00 
4 1 4  1.824198e-01 -5.715969e-01  1.169289e+00 0 0 0  0.000000e+00  0.000000e+00  0.000000e+00  5.899012e-01  0.000000e+00  0.000000e+00  8.074754e-01  0.000000e+00  0.000000e+00  0.000000e+00 
5 1 1  4.829363e-01 -3.560513e-01  1.559051e+00 0 0 0  0.000000e+00  0.000000e+00  0.000000e+00  3.123349e-01  0.000000e+00  0.000000e+00  9.499721e-01  0.000000e+00  0.000000e+00  0.000000e+00 
6 2 4 -4.829363e-01  3.560513e-01  1.559051e+00 0 0 0  0.000000e+00  0.000000e+00  0.000000e+00  0.000000e+00  9.499721e-01 -3.123349e-01 -0.000000e+00  0.000000e+00  0.000000e+00  0.000000e+00 
7 2 1 -1.824198e-01  5.715969e-01  1.169289e+00 0 0 0  0.000000e+00  0.000000e+00  0.000000e+00  0.000000e+00  8.074754e-01 -5.899012e-01  0.000000e+00  0.000000e+00  0.000000e+00  0.000000e+00 
8 2 2  1.874010e-01  5.699832e-01  7.795257e-01 0 0 0  0.000000e+00  0.000000e+00  0.000000e+00  0.000000e+00  5.863724e-01 -8.100416e-01  0.000000e+00  0.000000e+00  0.000000e+00  0.000000e+00 
9 2 3  4.860250e-01  3.518234e-01  3.897629e-01 0 0 0  0.000000e+00  0.000000e+00  0.000000e+00 -0.000000e+00 -3.081869e-01  9.513258e-01  0.000000e+00  0.000000e+00  0.000000e+00  0.000000e+00 
10 2 4  6.000000e-01 -1.332268e-16 -1.110223e-16 0 0 0  0.000000e+00  0.000000e+00  0.000000e+00 -0.000000e+00  1.110223e-16  1.000000e+00 -0.000000e+00  0.000000e+00  0.000000e+00  0.000000e+00 
ITEM: TIMESTEP
1000
ITEM: NUMBER OF ATOMS
10
ITEM: BOX BOUNDS pp pp pp
-2.0000000000000000e+01 2.0000000000000000e+01
-2.0000000000000000e+01 2.0000000000000000e+01
-2.0000000000000000e+01 2.0000000000000000e+01
ITEM: ATOMS id mol type x y z ix iy iz vx vy vz c_quat[1] c_quat[2] c_quat[3] c_quat[4] angmomx angmomy angmomz 
1 1 1 -6.128439e-01 -4.579495e-02 -4.009899e-02 0 0 0  1.845669e-02 -2.561778e-02 -4.692607e-02  9.957063e-01  9.035461e-02 -6.701701e-03  1.897395e-02 -4.977004e-02 -1.162898e-01 -3.261891e-01 
2 1 2 -4.716598e-01 -3.649001e-01  3.691937e-01 0 0 0  1.224326e-02 -1.131992e-01  1.744903e-02  9.386788e-01  8.251174e-02  1.114843e-02  3.345888e-01 -5.931167e-02 -4.408485e-02 -3.349667e-02 
3 1 3 -1.916685e-01 -5.597061e-01  7.676186e-01 0 0 0  1.399863e-01 -2.466789e-02  4.138495e-02  8.051821e-01  4.889018e-02  1.396280e-02  5.908440e-01 -1.543386e-01 -2.198395e-01  1.699568e-02 
4 1 4  1.671977e-01 -5.689780e-01  1.184355e+00 0 0 0 -1.222128e-01 -1.166908e-01  1.479266e-01  5.958230e-01  2.877986e-02  4.729985e-02  8.012050e-01  6.235110e-02  3.054422e-02 -1.026503e-02 
5 1 1  4.403010e-01 -3.695436e-01  1.629168e+00 0 0 0 -1.677861e-01  8.034683e-03 -2.409522e-02  3.172160e-01 -3.740192e-03  5.915081e-02  9.464994e-01  1.939457e-01 -3.303802e-02 -1.077541e-01 
6 2 4 -5.050551e-01  3.835950e-01  1.587607e+00 0 0 0  7.649078e-02  3.086403e-02  2.269319e-02 -1.148513e-01  9.382776e-01 -3.243627e-01  3.511489e-02  1.025021e-01 -2.596235e-02  3.093579e-01 
7 2 1 -1.837024e-01  5.668838e-01  1.182481e+00 0 0 0 -8.255410e-02  1.030690e-01 -3.640978e-02 -5.403515e-02  7.944916e-01 -6.026152e-01  5.213752e-02  1.752715e-01  2.008617e-01 -8.579205e-03 
8 2 2  1.570264e-01  5.916666e-01  7.892026e-01 0 0 0  1.114737e-02  1.035611e-01 -1.176395e-01 -3.485876e-02  5.838060e-01 -8.097059e-01  4.828769e-02 -1.208816e-01  8.924388e-02 -7.521994e-03 
9 2 3  4.544767e-01  3.938235e-01  3.739293e-01 0 0 0 -1.765196e-03  2.784494e-02 -3.974662e-02  1.422716e-02 -3.141141e-01  9.481003e-01 -4.728321e-02  2.462212e-01 -1.162519e-01 -2.849767e-03 
10 2 4  5.985290e-01  7.099214e-02 -5.006940e-03 0 0 0 -1.007860e-01  1.858592e-01  1.318991e-01  8.082921e-03 -4.151140e-02  9.865916e-01 -1.576339e-01  1.040093e-01 -9.330846e-02 -1.980910e-01 
ITEM: TIMESTEP
2000
ITEM: NUMBER OF ATOMS
10
ITEM: BOX BOUNDS pp pp pp
-2.0000000000000000e+01 2.0000000000000000e+01
-2.0000000000000000e+01 2.0000000000000000e+01
-2.0000000000000000e+01 2.0000000000000000e+01
ITEM: ATOMS id mol type x y z ix iy iz vx vy vz c_quat[1] c_quat[2] c_quat[3] c_quat[4] angmomx angmomy angmomz 
1 1 1 -5.522126e-01  1.084014e-02 -6.365562e-02 0 0 0  2.065281e-02 -3.024640e-02 -1.205894e-01  9.988303e-01  1.278366e-02 -3.992487e-02  2.409431e-02  2.250508e-01 -1.997189e-01 -1.447889e-02 
2 1 2 -4.632731e-01 -3.150593e-01  3.190261e-01 0 0 0 -4.691520e-02  8.453524e-02  1.436894e-01  9.360692e-01  4.868225e-02 -3.826728e-02  3.463237e-01 -1.928094e-02  1.235138e-01  2.383582e-01 
3 1 3 -2.281601e-01 -5.101100e-01  7.531993e-01 0 0 0  6.875599e-02 -2.118153e-03  1.255096e-01  7.956024e-01  8.274272e-02  2.427471e-02  5.996509e-01  2.395587e-01  1.716570e-01 -2.710316e-01 
4 1 4  1.081003e-01 -5.657930e-01  1.145292e+00 0 0 0 -1.615946e-01  1.166827e-01 -1.444152e-01  5.681568e-01  3.298452e-02  3.463096e-02  8.215294e-01  6.613360e-02  2.020589e-01  1.772645e-01 
5 1 1  3.940483e-01 -3.681380e-01  1.558527e+00 0 0 0 -1.230692e-01  5.602757e-03 -1.810585e-01  3.270886e-01  5.714598e-02  1.453860e-01  9.319926e-01 -3.101624e-01 -3.966881e-02 -8.872932e-02 
6 2 4 -5.083197e-01  4.128692e-01  1.605329e+00 0 0 0  1.116231e-02 -2.498916e-02  1.742005e-01 -4.933222e-02  9.415429e-01 -3.332394e-01 -3.848723e-03 -7.259554e-02 -1.023779e-02  1.659055e-01 
7 2 1 -2.616319e-01  5.681463e-01  1.204349e+00 0 0 0 -1.247945e-01  1.615271e-01 -1.603504e-01 -7.010508e-02  8.041809e-01 -5.891949e-01  3.503825e-02  6.381561e-02  9.955863e-02  8.409012e-02 
8 2 2  8.813420e-02  6.230427e-01  8.134107e-01 0 0 0  7.723746e-02 -1.643550e-01  8.122804e-02 -6.529157e-02  6.192942e-01 -7.775555e-01  8.728782e-02  1.621563e-01  1.016388e-03 -1.485790e-01 
9 2 3  4.811523e-01  4.155866e-01  4.306130e-01 0 0 0  3.128450e-03 -1.392559e-01  1.328165e-01  5.880078e-02 -3.590633e-01  9.276065e-01 -8.462965e-02 -2.807185e-02 -1.012825e-01  1.862792e-02 
10 2 4  6.557590e-01  2.484087e-02  7.303073e-02 0 0 0  8.305072e-02  1.284073e-01  1.442962e-02  9.173700e-02 -1.698807e-02  9.908633e-01 -9.739476e-02  2.984512e-02 -3.592191e-01  9.912071e-02 
ITEM: TIMESTEP
3000
ITEM: NUMBER OF ATOMS
10
ITEM: BOX BOUNDS pp pp pp
-2.0000000000000000e+01 2.0000000000000000e+01
-2.0000000000000000e+01 2.0000000000000000e+01
-2.0000000000000000e+01 2.0000000000000000e+01
ITEM: ATOMS id mol type x y z ix iy iz vx vy vz c_quat[1] c_quat[2] c_quat[3] c_quat[4] angmomx angmomy angmomz 
1 1 1 -5.035387e-01 -9.268009e-03 -1.452483e-01 0 0 0  8.085532e-02 -1.646134e-01 -6.699703e-02  9.896062e-01  1.350333e-03 -1.407955e-01 -2.922960e-02 -1.280614e-01 -3.899946e-02 -3.969435e-01 
2 1 2 -4.668970e-01 -3.426930e-01  2.978218e-01 0 0 0 -2.355120e-02 -7.276561e-02 -1.194373e-01  9.301437e-01  2.417143e-03 -1.148370e-01  3.487683e-01  3.369505e-02 -1.144888e-01  1.345840e-01 
3 1 3 -2.944566e-01 -5.301439e-01  7.729802e-01 0 0 0  1.576023e-01  2.956462e-02 -1.175028e-01  8.256686e-01  1.627761e-02  1.984766e-02  5.635711e-01 -8.012336e-02  2.539771e-01  6.560656e-02 
4 1 4  7.508263e-02 -5.626884e-01  1.170487e+00 0 0 0  6.745024e-02  1.351568e-01  1.076955e-01  5.947533e-01  2.683483e-02  4.878513e-02  8.019778e-01 -1.973793e-01  1.059721e-01 -1.527650e-01 
5 1 1  4.369639e-01 -3.248621e-01  1.482017e+00 0 0 0 -1.355323e-01  2.932105e-02  1.654272e-03  2.399580e-01  9.125979e-02  3.865168e-02  9.657111e-01  2.888220e-01 -4.366809e-02  3.221572e-02 
6 2 4 -4.574890e-01  3.890546e-01  1.607674e+00 0 0 0  2.706586e-02 -1.201894e-01  5.213018e-02 -2.431873e-02  9.435988e-01 -3.292357e-01 -2.517583e-02  7.472777e-02  9.006154e-02  8.759253e-02 
7 2 1 -2.725790e-01  5.879171e-01  1.225169e+00 0 0 0  3.303013e-02 -8.457839e-03  1.383247e-01 -4.486504e-02  7.801616e-01 -6.238796e-01  1.045415e-02  5.868389e-02  6.349675e-02 -9.374346e-02 
8 2 2  3.636160e-02  6.320247e-01  7.769241e-01 0 0 0 -2.400145e-01 -1.013599e-01 -1.152966e-01 -3.732396e-02  6.155697e-01 -7.824159e-01  8.663898e-02 -2.666946e-01 -2.632406e-01 -3.110516e-01 
9 2 3  4.101632e-01  4.604158e-01  5.163789e-01 0 0 0  1.545304e-02  2.085869e-01 -6.610768e-02  1.269123e-01 -3.067232e-01  9.330850e-01 -1.384429e-01  3.566544e-02 -1.381270e-01 -9.541603e-03 
10 2 4  7.079659e-01  5.391242e-02  1.905721e-01 0 0 0  4.190138e-02  4.202252e-02  1.214571e-01  1.738637e-01 -4.555375e-02  9.781619e-01 -1.043816e-01  1.658038e-01 -1.362625e-02 -2.688720e-01 
ITEM: TIMESTEP
4000
ITEM: NUMBER OF ATOMS
10
ITEM: BOX BOUNDS pp pp pp
-2.0000000000000000e+01 2.0000000000000000e+01
-2.0000000000000000e+01 2.0000000000000000e+01
-2.0000000000000000e+01 2.0000000000000000e+01
ITEM: ATOMS id mol type x y z ix iy iz vx vy vz c_quat[1] c_quat[2] c_quat[3] c_quat[4] angmomx angmomy angmomz 
1 1 1 -4.776131e-01 -1.388097e-01 -2.297612e-01 0 0 0  1.256258e-01  1.618805e-01 -1.784439e-01  9.715564e-01  5.048429e-02 -2.052635e-01  1.067542e-01 -9.365557e-02 -8.796062e-02 -6.859442e-02 
2 1 2 -4.598608e-01 -3.447624e-01  2.484911e-01 0 0 0 -2.245708e-01 -1.550838e-01 -4.445699e-02  9.255009e-01  3.919411e-02 -8.672266e-02  3.665939e-01 -1.108426e-01  7.280170e-02 -7.452048e-02 
3 1 3 -2.501398e-01 -5.404345e-01  7.186233e-01 0 0 0 -1.671201e-01 -4.479706e-02 -2.003393e-02  7.674518e-01  3.397835e-02 -2.679768e-02  6.396445e-01 -6.617579e-02 -5.894117e-02 -2.369840e-02 
4 1 4  8.913852e-02 -5.302880e-01  1.138095e+00 0 0 0  6.941232e-02  2.866048e-02  1.422295e-01  5.571272e-01  1.992382e-02  3.174835e-02  8.295808e-01  1.119826e-02 -1.162568e-01  1.364922e-01 
5 1 1  3.204741e-01 -3.904118e-01  1.499699e+00 0 0 0 -3.364203e-02 -2.775204e-01 -7.012748e-05  3.522616e-01  7.175165e-02  1.294803e-01  9.241203e-01  8.393752e-02 -2.690033e-01 -6.820877e-02 
6 2 4 -5.438497e-01  4.016870e-01  1.613660e+00 0 0 0 -2.338123e-01 -7.586972e-02 -1.393137e-01 -1.708832e-01  9.283348e-01 -3.292501e-01 -2.424404e-02 -1.563418e-01  9.884120e-02 -2.560991e-02 
7 2 1 -2.994291e-01  6.010880e-01  1.213714e+00 0 0 0 -7.655287e-02 -1.788317e-01 -2.577059e-02 -1.909415e-01  7.879207e-01 -5.839740e-01  4.118998e-02 -3.904727e-01 -2.044184e-01 -6.091406e-02 
8 2 2  4.304156e-02  6.423582e-01  8.393343e-01 0 0 0  9.916647e-02  2.625725e-01  1.787867e-01 -7.302268e-02  6.011051e-01 -7.939996e-01  5.389761e-02 -1.773422e-01 -4.295902e-02 -1.923162e-01 
9 2 3  4.003788e-01  4.817400e-01  4.634180e-01 0 0 0 -8.634920e-02  4.066673e-02  8.203981e-02  1.602720e-01 -3.563887e-01  9.077046e-01 -1.528799e-01 -1.370646e-01 -2.595927e-02 -2.297476e-02 
10 2 4  6.461826e-01  5.460358e-02  2.701467e-01 0 0 0  7.464614e-02  8.175879e-02 -8.565939e-02  2.359595e-01 -1.214090e-02  9.582454e-01 -1.610634e-01 -9.083388e-02 -1.534606e-01  1.916488e-01 
ITEM: TIMESTEP
5000
ITEM: NUMBER OF ATOMS
10
ITEM: BOX BOUNDS pp pp pp
-2.0000000000000000e+01 2.0000000000000000e+01
-2.0000000000000000e+01 2.0000000000000000e+01
-2.0000000000000000e+01 2.0000000000000000e+01
ITEM: ATOMS id mol type x y z ix iy iz vx vy vz c_quat[1] c_quat[2] c_quat[3] c_quat[4] angmomx angmomy angmomz 
1 1 1 -4.127363e-01 -5.383843e-02 -1.321977e-01 0 0 0  7.001257e-02  4.377579e-02  2.838532e-01  9.866569e-01 -2.367578e-02 -1.453923e-01  6.934478e-02  6.729309e-03  1.825343e-01 -8.866899e-02 
2 1 2 -4.366929e-01 -3.185470e-01  2.927385e-01 0 0 0 -2.949465e-02 -1.854566e-01 -1.191580e-02  9.322123e-01  8.331171e-02 -7.023554e-02  3.451178e-01  9.697743e-02  7.488075e-02  5.858564e-02 
3 1 3 -3.188017e-01 -5.566882e-01  7.373111e-01 0 0 0  3.468968e-01  3.206322e-03  1.215236e-02  8.222162e-01  6.218945e-03 -1.768089e-02  5.688666e-01  1.977304e-01  1.108991e-01  1.613843e-02 
4 1 4 -4.259711e-02 -6.093262e-01  1.193109e+00 0 0 0 -2.323661e-01 -3.661775e-02  2.609668e-01  6.347651e-01 -1.477188e-02 -7.783324e-03  7.725247e-01  1.212381e-01 -4.916833e-02  1.105341e-01 
5 1 1  2.008188e-01 -3.996257e-01  1.683565e+00 0 0 0 -1.772642e-01  2.097439e-02 -7.261265e-03  3.073661e-01 -7.973825e-02  7.694510e-02  9.451176e-01 -3.061572e-01  2.218786e-01  1.211377e-02 
6 2 4 -7.563885e-01  3.023605e-01  1.470363e+00 0 0 0 -3.283096e-01 -1.813961e-01 -1.897517e-01 -5.190136e-02  9.613522e-01 -2.467238e-01  1.106145e-01 -3.546421e-02 -6.836282e-02 -4.329551e-01 
7 2 1 -4.306146e-01  5.275705e-01  1.154179e+00 0 0 0 -1.390334e-01  6.510066e-02  8.234027e-02 -1.636795e-01  8.217189e-01 -5.360523e-01  1.031260e-01 -2.418029e-01 -7.260500e-02 -1.779736e-01 
8 2 2  6.816798e-03  5.548549e-01  8.413852e-01 0 0 0 -2.211125e-02  1.133419e-01  4.373986e-03 -1.591436e-01  6.007741e-01 -7.786334e-01  8.645157e-02  9.701508e-02 -1.464825e-01 -1.198146e-01 
9 2 3  4.277340e-01  4.330592e-01  5.437066e-01 0 0 0  1.111685e-02 -3.062094e-01  4.351614e-02  1.270908e-01 -3.394444e-01  9.303889e-01 -5.479041e-02  2.993462e-02  4.119206e-02 -1.774961e-01 
10 2 4  7.042311e-01  1.028130e-01  2.151394e-01 0 0 0 -1.464175e-01  7.216630e-02 -1.041890e-02  1.369087e-01 -8.031730e-02  9.829526e-01 -9.278647e-02  2.116157e-01 -3.925532e-03  7.698674e-03 
ITEM: TIMESTEP
6000
ITEM: NUMBER OF ATOMS
10
ITEM: BOX BOUNDS pp pp pp
-2.0000000000000000e+01 2.0000000000000000e+01
-2.0000000000000000e+01 2.0000000000000000e+01
-2.0000000000000000e+01 2.0000000000000000e+01
ITEM: ATOMS id mol type x y z ix iy iz vx vy vz c_quat[1] c_quat[2] c_quat[3] c_quat[4] angmomx angmomy angmomz 
1 1 1 -4.931502e-01 -4.116620e-02 -4.890278e-02 0 0 0  2.685655e-02 -8.547458e-02  2.520990e-01  9.854732e-01  1.111698e-01 -9.669999e-02  8.445688e-02  9.493773e-02 -2.514469e-01 -3.957603e-02 
2 1 2 -4.189756e-01 -4.442205e-01  2.756094e-01 0 0 0 -1.638358e-01 -4.799132e-02 -2.701500e-01  9.074044e-01  6.080445e-02 -1.761666e-01  3.766769e-01  8.218665e-03 -1.086686e-01  1.614577e-01 
3 1 3 -2.560009e-01 -6.701804e-01  7.899179e-01 0 0 0 -1.274445e-01  2.990526e-01  1.210950e-01  7.382522e-01 -8.270191e-02 -1.382182e-01  6.550113e-01  4.981880e-02  2.262654e-01  9.568079e-02 
4 1 4 -1.339529e-01 -6.037988e-01  1.296961e+00 0 0 0 -7.797054e-02  1.136987e-01  1.585889e-01  5.901797e-01 -1.091047e-01 -2.524015e-02  7.994667e-01 -1.160306e-01  8.611643e-02 -1.373324e-01 
5 1 1  1.451365e-02 -3.372469e-01  1.737498e+00 0 0 0 -1.157532e-02 -1.126245e-01  1.532447e-01  3.174803e-01 -1.256931e-01 -1.492618e-02  9.397791e-01 -2.993062e-02 -2.536256e-01  2.453393e-01 
6 2 4 -9.032669e-01  3.270611e-01  1.397420e+00 0 0 0 -1.760323e-01 -1.388210e-01 -2.011941e-01 -1.291086e-01  9.221112e-01 -2.926445e-01  2.177180e-01  4.342729e-02 -1.636148e-01 -1.680058e-01 
7 2 1 -5.503031e-01  5.209210e-01  1.134873e+00 0 0 0 -1.220382e-01 -8.108294e-02 -4.321532e-02 -2.179801e-01  7.870954e-01 -5.390940e-01  2.057746e-01 -1.633919e-01  1.619359e-01 -6.021910e-02 
8 2 2 -1.756661e-02  5.346128e-01  9.392521e-01 0 0 0 -1.823232e-02 -5.082528e-02  1.120368e-01 -1.919739e-01  6.319108e-01 -7.341736e-01  1.575563e-01  9.385684e-02 -3.031617e-01  2.735901e-01 
9 2 3  4.062695e-01  3.157280e-01  6.265102e-01 0 0 0 -7.664263e-02 -2.000289e-01 -1.331320e-01  1.611988e-01 -3.611064e-01  9.136274e-01 -9.435050e-02  8.592283e-02 -8.716310e-02  3.180610e-01 
10 2 4  6.157664e-01  2.046529e-02  2.533412e-01 0 0 0  1.315044e-01 -8.425573e-02  1.588539e-01  1.394508e-01 -2.345231e-02  9.857793e-01 -9.078911e-02 -1.703887e-01 -1.667724e-01 -1.073689e-01 
ITEM: TIMESTEP
7000
ITEM: NUMBER OF ATOMS
10
ITEM: BOX BOUNDS pp pp pp
-2.0000000000000000e+01 2.0000000000000000e+01
-2.0000000000000000e+01 2.0000000000000000e+01
-2.0000000000000000e+01 2.0000000000000000e+01
ITEM: ATOMS id mol type x y z ix iy iz vx vy vz c_quat[1] c_quat[2] c_quat[3] c_quat[4] angmomx angmomy angmomz 
1 1 1 -3.986965e-01 -1.465032e-01 -6.764831e-02 0 0 0  1.298539e-01 -1.061853e-01 -2.867849e-02  9.778840e-01 -5.876940e-02 -2.004592e-01 -1.025729e-02 -2.907004e-01 -3.268127e-01  2.714468e-02 
2 1 2 -4.605494e-01 -4.801119e-01  3.065425e-01 0 0 0  5.062160e-02  7.773679e-02 -8.101403e-02  9.366891e-01 -6.941698e-02 -2.145836e-01  2.678595e-01 -5.474395e-02 -1.979358e-01 -1.002729e-01 
3 1 3 -3.234718e-01 -7.136165e-01  7.869633e-01 0 0 0 -4.579060e-02 -1.114949e-01  1.573627e-01  7.778501e-01 -1.032191e-01 -1.687354e-01  5.965094e-01 -2.653447e-01 -1.534973e-01  3.573473e-01 
4 1 4 -1.585463e-01 -6.454969e-01  1.278146e+00 0 0 0 -9.579260e-03 -7.411150e-02  4.786293e-02  5.004665e-01 -1.036906e-01 -5.093045e-02  8.580138e-01 -1.327731e-01  3.032840e-01 -1.618888e-01 
5 1 1 -8.741488e-02 -4.182672e-01  1.821566e+00 0 0 0  5.704391e-02 -2.937096e-01 -5.807780e-02  3.303336e-01 -1.849082e-01  2.420027e-02  9.252584e-01 -5.378288e-02  1.357197e-01 -1.092308e-01 
6 2 4 -1.037240e+00  2.710383e-01  1.362339e+00 0 0 0 -2.994628e-02 -1.055587e-01  8.155551e-02 -4.057946e-02  9.472071e-01 -2.164204e-01  2.330542e-01 -2.279269e-02 -2.515775e-01 -1.905579e-01 
7 2 1 -6.328856e-01  4.522973e-01  1.120223e+00 0 0 0 -1.325693e-01  1.287879e-01 -1.115834e-01 -1.892101e-01  8.192935e-01 -4.946798e-01  2.196579e-01 -1.854559e-02 -3.433553e-01 -1.059180e-01 
8 2 2 -1.252862e-01  4.975756e-01  9.000383e-01 0 0 0 -1.654368e-01  4.052946e-01 -6.184621e-02 -1.942814e-01  6.426340e-01 -7.114812e-01  2.075350e-01  2.617049e-03 -2.531071e-02  4.236737e-01 
9 2 3  3.421569e-01  3.099478e-01  6.832949e-01 0 0 0  1.047273e-03 -1.698614e-01  1.157716e-01  1.768483e-01 -3.447834e-01  9.166887e-01 -9.762600e-02  2.006461e-01  2.165360e-01  1.179891e-01 
10 2 4  5.710430e-01 -4.790983e-03  4.634807e-01 0 0 0 -2.433421e-01 -2.369935e-01  1.999004e-01  2.529837e-01  5.511945e-02  9.607644e-01 -9.946239e-02 -1.153549e-01 -5.760010e-02  2.117054e-01 
ITEM: TIMESTEP
8000
ITEM: NUMBER OF ATOMS
10
ITEM: BOX BOUNDS pp pp pp
-2.0000000000000000e+01 2.0000000000000000e+01
-2.0000000000000000e+01 2.0000000000000000e+01
-2.0000000000000000e+01 2.0000000000000000e+01
ITEM: ATOMS id mol type x y z ix iy iz vx vy vz c_quat[1] c_quat[2] c_quat[3] c_quat[4] angmomx angmomy angmomz 
1 1 1 -2.694541e-01 -2.965494e-01 -1.002047e-01 0 0 0  5.332417e-02 -5.508561e-02 -3.099369e-02  9.446847e-01  7.162912e-03 -2.958544e-01  1.413847e-01  5.623059e-02 -5.239125e-01 -2.190706e-01 
2 1 2 -4.472509e-01 -5.807896e-01  3.179623e-01 0 0 0  3.010105e-01 -1.676800e-02 -6.386257e-02  9.058764e-01  2.994780e-03 -2.306002e-01  3.552500e-01 -1.324064e-01 -2.140140e-01 -3.192164e-01 
3 1 3 -4.403157e-01 -7.431160e-01  7.922241e-01 0 0 0 -1.897169e-01 -1.068172e-01  1.489267e-01  7.899709e-01 -7.402924e-02 -1.476582e-01  5.904767e-01 -9.899263e-02  1.257570e-01  4.798161e-02 
4 1 4 -3.380340e-01 -7.166965e-01  1.317491e+00 0 0 0 -2.445379e-01 -1.544828e-01 -2.162495e-01  6.562986e-01 -8.467813e-02 -1.724626e-02  7.495361e-01  1.052406e-02  2.653920e-01  1.116787e-01 
5 1 1 -1.150529e-01 -4.662500e-01  1.694522e+00 0 0 0 -2.416254e-01  8.848429e-02  1.354941e-02  3.315828e-01 -5.810927e-02  7.911201e-02  9.383056e-01  2.711470e-01  1.498712e-01  4.482940e-02 
6 2 4 -1.069309e+00  2.554980e-01  1.441999e+00 0 0 0  1.402274e-01  1.867786e-01 -3.970834e-02 -2.505932e-01  9.139800e-01 -2.386273e-01  2.118977e-01 -5.967539e-02  8.612307e-03 -3.950935e-02 
7 2 1 -5.970178e-01  4.382439e-01  1.230075e+00 0 0 0  2.343598e-03  1.894994e-02  2.462073e-01 -2.218157e-01  7.573978e-01 -5.785293e-01  2.060343e-01  2.103213e-02  1.692610e-02  7.546304e-02 
8 2 2 -1.766277e-01  4.054172e-01  9.253307e-01 0 0 0 -1.874030e-01 -5.219188e-01  1.724493e-01 -2.594466e-01  5.732435e-01 -7.101211e-01  3.159230e-01 -6.470453e-02  4.221968e-02  3.220851e-01 
9 2 3  2.691908e-01  2.966102e-01  7.765733e-01 0 0 0  3.248570e-01 -2.477498e-01 -2.269109e-01  2.901943e-01 -3.402101e-01  8.365981e-01 -3.164616e-01  2.649360e-01  3.614547e-01 -1.624655e-01 
10 2 4  6.077503e-01 -4.516908e-02  5.802926e-01 0 0 0 -1.682500e-01  2.098324e-01  4.199795e-01  3.233176e-01  4.812352e-02  9.312696e-01 -1.608934e-01  1.508196e-02  4.043397e-02 -1.642786e-01 
ITEM: TIMESTEP
9000
ITEM: NUMBER OF ATOMS
10
ITEM: BOX BOUNDS pp pp pp
-2.0000000000000000e+01 2.0000000000000000e+01
-2.0000000000000000e+01 2.0000000000000000e+01
-2.0000000000000000e+01 2.0000000000000000e+01
ITEM: ATOMS id mol type x y z ix iy iz vx vy vz c_quat[1] c_quat[2] c_quat[3] c_quat[4] angmomx angmomy angmomz 
1 1 1 -1.778590e-01 -3.343017e-01 -5.803836e-02 0 0 0  7.266677e-02  1.209047e-01 -3.029575e-01  9.267274e-01 -8.422951e-02 -3.637354e-01  4.216941e-02 -1.657173e-01  1.663393e-01 -3.506732e-02 
2 1 2 -4.578073e-01 -5.753307e-01  2.738257e-01 0 0 0 -1.113029e-01 -4.774555e-02  2.865357e-01  8.953421e-01 -4.700720e-02 -3.206825e-01  3.054759e-01  8.694968e-02 -6.750661e-04 -1.225102e-01 
3 1 3 -5.338769e-01 -7.246803e-01  7.838905e-01 0 0 0  8.616713e-02 -1.887289e-01 -1.241858e-01  8.154138e-01 -1.176293e-01 -1.900957e-01  5.339732e-01  1.779661e-01  1.813406e-01  4.458226e-02 
4 1 4 -3.807211e-01 -7.650016e-01  1.278754e+00 0 0 0  7.318581e-02  6.101316e-02 -1.684654e-01  6.400306e-01 -1.369007e-01 -1.380828e-01  7.433385e-01  3.121298e-01 -3.979767e-03 -8.809604e-02 
5 1 1 -3.243335e-01 -6.226997e-01  1.781551e+00 0 0 0 -2.739559e-01 -1.149017e-01  1.193095e-01  3.952134e-01 -1.891210e-01 -4.107853e-02  8.979712e-01  2.769856e-01  1.110662e-02 -2.705274e-01 
6 2 4 -1.063802e+00  2.347020e-01  1.469344e+00 0 0 0  7.854042e-02  9.068520e-02  6.450352e-02 -1.239513e-01  9.161384e-01 -3.371213e-01  1.779770e-01  6.318292e-02 -1.466476e-01  1.870063e-01 
7 2 1 -6.050086e-01  4.207448e-01  1.176560e+00 0 0 0 -1.802847e-01  4.749500e-03 -1.354971e-01 -1.441684e-01  7.485614e-01 -6.140849e-01  2.043798e-01 -3.791494e-01 -8.868504e-02 -5.948194e-02 
8 2 2 -1.164602e-01  4.123654e-01  9.812474e-01 0 0 0  1.119278e-01 -2.993314e-01  1.528731e-01 -2.403012e-01  5.001989e-01 -7.942608e-01  2.473986e-01 -2.374841e-01 -2.586395e-01  1.986455e-01 
9 2 3  2.764973e-01  1.279192e-01  9.332441e-01 0 0 0  5.679489e-02  8.225220e-02  1.178917e-01  3.815199e-01 -2.314921e-01  8.303825e-01 -3.336448e-01  1.344763e-01  1.449488e-01 -1.459283e-01 
10 2 4  6.445125e-01 -2.759252e-01  7.494883e-01 0 0 0 -4.214890e-02 -3.301176e-01  3.668319e-01  3.551217e-01  8.592195e-02  9.274973e-01 -7.908640e-02 -3.426946e-02  2.739807e-01 -3.327593e-01 
ITEM: TIMESTEP
10000
ITEM: NUMBER OF ATOMS
10
ITEM: BOX BOUNDS pp pp pp
-2.0000000000000000e+01 2.0000000000000000e+01
-2.0000000000000000e+01 2.0000000000000000e+01
-2.0000000000000000e+01 2.0000000000000000e+01
ITEM: ATOMS id mol type x y z ix iy iz vx vy vz c_quat[1] c_quat[2] c_quat[3] c_quat[4] angmomx angmomy angmomz 
1 1 1 -2.127725e-01 -2.500324e-01  9.540747e-03 0 0 0 -2.540306e-01  1.819361e-01 -1.585148e-01  9.254884e-01  7.357325e-02 -3.652436e-01 -6.823026e-02  1.944185e-01  2.125369e-01  7.652663e-02 
2 1 2 -4.899766e-01 -5.425169e-01  3.225839e-01 0 0 0  1.530594e-01  2.094495e-02  5.653801e-02  9.223963e-01 -2.822569e-02 -2.903517e-01  2.531488e-01 -2.131074e-01 -2.727767e-01 -7.114558e-02 
3 1 3 -5.254537e-01 -8.113438e-01  8.159659e-01 0 0 0 -1.356764e-01 -3.966287e-01  4.697627e-02  8.197883e-01 -1.234661e-01 -1.990886e-01  5.225581e-01  9.207893e-02  1.195887e-01  1.389931e-01 
4 1 4 -4.954476e-01 -8.495346e-01  1.367917e+00 0 0 0 -1.392748e-01  7.570210e-02 -2.211816e-02  6.513014e-01 -2.095841e-01 -1.007847e-01  7.223043e-01 -2.687512e-01 -1.864959e-01 -2.877494e-02 
5 1 1 -3.957550e-01 -6.427897e-01  1.792201e+00 0 0 0 -4.248850e-02 -3.200178e-02  6.075140e-02  3.865814e-01 -1.965771e-01  5.265941e-02  8.995217e-01  3.046023e-01 -1.234715e-01  2.815246e-01 
6 2 4 -1.067621e+00  2.275193e-01  1.351282e+00 0 0 0 -6.288481e-02  7.169792e-02 -1.445646e-01 -1.385306e-01  8.454511e-01 -4.371355e-01  2.737412e-01 -1.976813e-01 -2.522544e-01  2.467469e-01 
7 2 1 -5.814094e-01  3.304689e-01  1.198353e+00 0 0 0  2.140703e-01  3.968623e-03  9.025146e-02 -2.595338e-01  6.891102e-01 -6.123073e-01  2.878353e-01  1.234673e-02  2.009542e-01 -2.781024e-02 
8 2 2 -8.780471e-02  2.633841e-01  1.112137e+00 0 0 0 -1.734614e-01 -2.888149e-01  1.391553e-01 -3.346077e-01  4.445543e-01 -7.981974e-01  2.308464e-01 -2.424166e-01  1.894703e-01 -1.754698e-01 
9 2 3  3.208975e-01  3.834383e-02  9.556209e-01 0 0 0  1.935799e-01  7.677422e-03  2.130293e-01  3.900826e-01 -1.397527e-01  8.526590e-01 -3.182411e-01 -2.260762e-01 -9.625182e-02 -1.862757e-01 
10 2 4  5.950302e-01 -4.023164e-01  7.513322e-01 0 0 0 -5.203541e-03 -1.397662e-01  6.631310e-02  3.836628e-01  2.224236e-01  8.924883e-01 -8.243288e-02  2.727670e-01  3.515552e-01 -5.896098e-03 
