# LAMMPS data file
4000 atoms
4000 ellipsoids
4000 bonds

4 atom types
1 bond types

# System size
-71.170425 738.829575 xlo xhi
-48.322948 761.677052 ylo yhi
-81.974899 728.025101 zlo zhi

Masses

1 3.1575
2 3.1575
3 3.1575
4 3.1575

# Atom-ID, type, position, molecule-ID, ellipsoid flag, density
Atoms

1 2 -4.911118316650390e+01 -1.154747295379640e+01 -7.464387512207030e+01 1 1 1
2 2 -4.856692886352540e+01 -1.130211067199710e+01 -7.462011718750000e+01 1 1 1
3 4 -4.823109054565430e+01 -1.107754611968990e+01 -7.439920806884770e+01 1 1 1
4 1 -4.782059097290040e+01 -1.101400947570800e+01 -7.407406616210940e+01 1 1 1
5 4 -4.735464859008790e+01 -1.099259090423580e+01 -7.387440490722661e+01 1 1 1
6 2 -4.696273422241210e+01 -1.137480068206790e+01 -7.364219665527339e+01 1 1 1
7 4 -4.653121566772460e+01 -1.168546199798580e+01 -7.372724914550780e+01 1 1 1
8 2 -4.601932525634770e+01 -1.187190055847170e+01 -7.388633728027339e+01 1 1 1
9 4 -4.568992614746090e+01 -1.196013736724850e+01 -7.427356719970700e+01 1 1 1
10 4 -4.525514602661130e+01 -1.189873409271240e+01 -7.452949523925780e+01 1 1 1
11 1 -4.492638015747070e+01 -1.163534164428710e+01 -7.477819824218750e+01 1 1 1
12 2 -4.451487350463870e+01 -1.132774925231930e+01 -7.491830444335940e+01 1 1 1
13 2 -4.415003585815430e+01 -1.096098518371580e+01 -7.477091217041020e+01 1 1 1
14 3 -4.375157546997070e+01 -1.078489398956300e+01 -7.447647857666020e+01 1 1 1
15 3 -4.325164413452150e+01 -1.082235908508300e+01 -7.413713073730470e+01 1 1 1
16 3 -4.290873336791990e+01 -1.110242843627930e+01 -7.396767425537109e+01 1 1 1
17 1 -4.254693603515620e+01 -1.144980335235600e+01 -7.388522338867190e+01 1 1 1
18 1 -4.213942718505860e+01 -1.184505271911620e+01 -7.395397186279300e+01 1 1 1
19 3 -4.166301345825200e+01 -1.198003292083740e+01 -7.411437988281250e+01 1 1 1
20 2 -4.121365356445310e+01 -1.206858634948730e+01 -7.449557495117190e+01 1 1 1
21 4 -4.069758987426760e+01 -1.180518341064450e+01 -7.465378570556641e+01 1 1 1
22 1 -4.029280853271480e+01 -1.149524497985840e+01 -7.461646270751950e+01 1 1 1
23 1 -3.997240447998050e+01 -1.107663822174070e+01 -7.432384490966800e+01 1 1 1
24 4 -3.969551086425780e+01 -1.080936813354490e+01 -7.397016906738280e+01 1 1 1
25 2 -3.955975723266600e+01 -1.071924209594730e+01 -7.344722747802730e+01 1 1 1
26 3 -3.937676620483400e+01 -1.079584503173830e+01 -7.294831085205080e+01 1 1 1
27 3 -3.920036697387700e+01 -1.113951015472410e+01 -7.259181976318359e+01 1 1 1
28 4 -3.885433197021480e+01 -1.151335906982420e+01 -7.240544891357420e+01 1 1 1
29 4 -3.839963912963870e+01 -1.185436630249020e+01 -7.233231353759770e+01 1 1 1
30 1 -3.784440994262700e+01 -1.192478656768800e+01 -7.228141021728520e+01 1 1 1
31 1 -3.733703994750980e+01 -1.178491306304930e+01 -7.225931549072270e+01 1 1 1
32 4 -3.687307357788090e+01 -1.151382541656490e+01 -7.211749267578119e+01 1 1 1
33 2 -3.673001098632810e+01 -1.115264701843260e+01 -7.177772521972661e+01 1 1 1
34 4 -3.668078613281250e+01 -1.084982681274410e+01 -7.140608978271480e+01 1 1 1
35 3 -3.686131668090820e+01 -1.060426902771000e+01 -7.096874237060550e+01 1 1 1
36 2 -3.689182281494140e+01 -1.056944847106930e+01 -7.046453094482420e+01 1 1 1
37 4 -3.677432250976560e+01 -1.065147972106930e+01 -6.985095977783200e+01 1 1 1
38 3 -3.635489273071290e+01 -1.084722709655760e+01 -6.940892791748050e+01 1 1 1
39 4 -3.581000137329100e+01 -1.093059158325200e+01 -6.920745086669920e+01 1 1 1
40 4 -3.532072830200200e+01 -1.083937549591060e+01 -6.900913238525391e+01 1 1 1
41 1 -3.483342742919920e+01 -1.066049003601070e+01 -6.923891448974609e+01 1 1 1
42 4 -3.439121627807620e+01 -1.025516891479490e+01 -6.928970336914060e+01 1 1 1
43 4 -3.410251617431640e+01 -9.820326805114750e+00 -6.922943115234381e+01 1 1 1
44 1 -3.406538391113280e+01 -9.360841751098629e+00 -6.907816314697270e+01 1 1 1
45 1 -3.402346420288090e+01 -8.923539161682131e+00 -6.877011871337891e+01 1 1 1
46 4 -3.394327163696290e+01 -8.576428413391110e+00 -6.833576202392580e+01 1 1 1
47 2 -3.376641082763670e+01 -8.549242973327640e+00 -6.776671600341800e+01 1 1 1
48 2 -3.358620071411130e+01 -8.695553779602051e+00 -6.731674194335940e+01 1 1 1
49 3 -3.322366714477540e+01 -8.803093910217290e+00 -6.694974517822270e+01 1 1 1
50 1 -3.272607803344730e+01 -9.122537612915041e+00 -6.685083770751950e+01 1 1 1
51 3 -3.224388122558590e+01 -9.226259231567379e+00 -6.672207641601560e+01 1 1 1
52 2 -3.173230361938480e+01 -9.063709259033200e+00 -6.677683258056641e+01 1 1 1
53 1 -3.130552673339840e+01 -8.848643302917480e+00 -6.647273254394530e+01 1 1 1
54 1 -3.097177505493160e+01 -8.536420822143549e+00 -6.623667907714839e+01 1 1 1
55 2 -3.081835174560550e+01 -8.153940200805661e+00 -6.599897003173830e+01 1 1 1
56 1 -3.089220237731930e+01 -7.783954143524170e+00 -6.559875488281250e+01 1 1 1
57 1 -3.081115722656250e+01 -7.612439632415770e+00 -6.503883361816411e+01 1 1 1
58 3 -3.062790298461910e+01 -7.738999843597410e+00 -6.450841522216800e+01 1 1 1
59 2 -3.042953681945800e+01 -8.033301353454590e+00 -6.416480255126950e+01 1 1 1
60 3 -3.004583168029790e+01 -8.416533470153810e+00 -6.396416473388670e+01 1 1 1
61 2 -2.964345550537110e+01 -8.571874618530270e+00 -6.385624694824220e+01 1 1 1
62 2 -2.916795158386230e+01 -8.695640563964840e+00 -6.401168823242190e+01 1 1 1
63 1 -2.867646026611330e+01 -8.648299217224119e+00 -6.390886306762700e+01 1 1 1
64 4 -2.826939392089840e+01 -8.347869873046880e+00 -6.369018554687500e+01 1 1 1
65 2 -2.806874275207520e+01 -8.063704490661619e+00 -6.333180236816410e+01 1 1 1
66 4 -2.798848152160640e+01 -7.827802181243900e+00 -6.287183380126950e+01 1 1 1
67 2 -2.794367790222170e+01 -7.941699504852290e+00 -6.231864166259770e+01 1 1 1
68 4 -2.795639419555660e+01 -8.344120979309080e+00 -6.183436965942380e+01 1 1 1
69 3 -2.776125907897950e+01 -8.828398704528810e+00 -6.146424484252930e+01 1 1 1
70 2 -2.751281356811520e+01 -9.266383171081539e+00 -6.132217788696290e+01 1 1 1
71 4 -2.699916076660160e+01 -9.598690986633301e+00 -6.139601516723630e+01 1 1 1
72 1 -2.647958946228030e+01 -9.724809646606451e+00 -6.136251449584960e+01 1 1 1
73 3 -2.602965354919430e+01 -9.680788040161129e+00 -6.146304702758790e+01 1 1 1
74 2 -2.561919021606450e+01 -9.390997886657710e+00 -6.149074935913090e+01 1 1 1
75 4 -2.525189971923830e+01 -9.026544570922850e+00 -6.135973739624020e+01 1 1 1
76 1 -2.474582672119140e+01 -8.952411651611330e+00 -6.121736145019530e+01 1 1 1
77 4 -2.437857818603520e+01 -8.934873580932621e+00 -6.086880493164060e+01 1 1 1
78 3 -2.401933670043950e+01 -9.179847717285160e+00 -6.057877731323240e+01 1 1 1
79 3 -2.369810295104980e+01 -9.596394538879389e+00 -6.032187271118160e+01 1 1 1
80 4 -2.360786437988280e+01 -1.008264636993410e+01 -6.025268554687500e+01 1 1 1
81 2 -2.333751678466800e+01 -1.056099319458010e+01 -6.044129943847660e+01 1 1 1
82 4 -2.302126693725590e+01 -1.086290550231930e+01 -6.071012878417970e+01 1 1 1
83 2 -2.274698829650880e+01 -1.107790374755860e+01 -6.116234588623050e+01 1 1 1
84 1 -2.228203582763670e+01 -1.110635089874270e+01 -6.141777420043950e+01 1 1 1
85 3 -2.174202537536620e+01 -1.099995231628420e+01 -6.153982925415040e+01 1 1 1
86 3 -2.122089767456050e+01 -1.084842491149900e+01 -6.152007293701170e+01 1 1 1
87 3 -2.068743324279790e+01 -1.079860019683840e+01 -6.127182769775390e+01 1 1 1
88 1 -2.032558059692380e+01 -1.094393730163570e+01 -6.089320373535160e+01 1 1 1
89 1 -1.997788238525390e+01 -1.121131896972660e+01 -6.066097640991210e+01 1 1 1
90 3 -1.974798965454100e+01 -1.167081642150880e+01 -6.055231094360350e+01 1 1 1
91 4 -1.968266868591310e+01 -1.213072299957280e+01 -6.064232254028320e+01 1 1 1
92 3 -1.938354873657230e+01 -1.254992389678960e+01 -6.092168045043950e+01 1 1 1
93 1 -1.893163108825680e+01 -1.272837638854980e+01 -6.122880554199220e+01 1 1 1
94 1 -1.844192695617680e+01 -1.272656917572020e+01 -6.142971420288090e+01 1 1 1
95 4 -1.789578247070310e+01 -1.245474243164060e+01 -6.152819061279300e+01 1 1 1
96 2 -1.753186035156250e+01 -1.198513793945310e+01 -6.139842605590820e+01 1 1 1
97 4 -1.712727928161620e+01 -1.167921447753910e+01 -6.110726928710940e+01 1 1 1
98 3 -1.666772460937500e+01 -1.161504936218260e+01 -6.078351593017580e+01 1 1 1
99 2 -1.635290145874020e+01 -1.176005649566650e+01 -6.029467010498050e+01 1 1 1
100 4 -1.608008384704590e+01 -1.203662395477290e+01 -5.999311828613280e+01 1 1 1
101 1 -1.560338687896730e+01 -1.237724018096920e+01 -5.997071838378910e+01 1 1 1
102 4 -1.518652725219730e+01 -1.257931613922120e+01 -6.017754364013670e+01 1 1 1
103 3 -1.477620697021480e+01 -1.265358734130860e+01 -6.044194793701170e+01 1 1 1
104 2 -1.429945945739750e+01 -1.258426952362060e+01 -6.076803970336910e+01 1 1 1
105 1 -1.376160144805910e+01 -1.237512969970700e+01 -6.080625534057620e+01 1 1 1
106 4 -1.340871143341060e+01 -1.196653175354000e+01 -6.063626861572270e+01 1 1 1
107 1 -1.318130779266360e+01 -1.167124271392820e+01 -6.030798721313480e+01 1 1 1
108 3 -1.300009822845460e+01 -1.158922290802000e+01 -5.981431198120120e+01 1 1 1
109 4 -1.274150657653810e+01 -1.161394309997560e+01 -5.934236145019530e+01 1 1 1
110 2 -1.254705810546880e+01 -1.194915103912350e+01 -5.887094497680660e+01 1 1 1
111 4 -1.209469032287600e+01 -1.216852664947510e+01 -5.860013580322270e+01 1 1 1
112 1 -1.171511650085450e+01 -1.251782894134520e+01 -5.845026016235350e+01 1 1 1
113 3 -1.131345462799070e+01 -1.277042388916020e+01 -5.862519454956050e+01 1 1 1
114 3 -1.079278659820560e+01 -1.276881122589110e+01 -5.870774078369140e+01 1 1 1
115 2 -1.027963638305660e+01 -1.257762813568120e+01 -5.875013732910160e+01 1 1 1
116 4 -9.883299827575680e+00 -1.226607799530030e+01 -5.868319320678710e+01 1 1 1
117 4 -9.559036254882811e+00 -1.189218616485600e+01 -5.850193786621090e+01 1 1 1
118 1 -9.437252998352051e+00 -1.150972461700440e+01 -5.815427398681640e+01 1 1 1
119 2 -9.251441955566410e+00 -1.132606506347660e+01 -5.766513061523440e+01 1 1 1
120 1 -9.034785270690920e+00 -1.126330184936520e+01 -5.718300247192380e+01 1 1 1
121 3 -8.815191268920900e+00 -1.154420375823970e+01 -5.678379440307620e+01 1 1 1
122 3 -8.518052101135250e+00 -1.193134212493900e+01 -5.648180007934570e+01 1 1 1
123 4 -8.064432144165041e+00 -1.209694480896000e+01 -5.620288085937500e+01 1 1 1
124 2 -7.512535095214840e+00 -1.212656211853030e+01 -5.619137573242190e+01 1 1 1
125 1 -6.917493343353270e+00 -1.196629333496090e+01 -5.605652618408200e+01 1 1 1
126 3 -6.517673492431640e+00 -1.159648799896240e+01 -5.594070053100590e+01 1 1 1
127 4 -6.254632949829100e+00 -1.118987655639650e+01 -5.563231277465820e+01 1 1 1
128 1 -6.259909152984620e+00 -1.069961357116700e+01 -5.537418365478520e+01 1 1 1
129 1 -6.199875354766850e+00 -1.036966419219970e+01 -5.501669692993160e+01 1 1 1
130 3 -6.311362266540530e+00 -1.019366359710690e+01 -5.452289199829100e+01 1 1 1
131 2 -6.243216037750240e+00 -1.026778984069820e+01 -5.401589584350590e+01 1 1 1
132 1 -5.986747741699220e+00 -1.049064350128170e+01 -5.356834030151370e+01 1 1 1
133 2 -5.691613197326660e+00 -1.067655372619630e+01 -5.320531082153320e+01 1 1 1
134 1 -5.204024791717530e+00 -1.073714828491210e+01 -5.300385284423830e+01 1 1 1
135 4 -4.734988212585450e+00 -1.076149463653560e+01 -5.284246063232420e+01 1 1 1
136 4 -4.208085060119630e+00 -1.054573345184330e+01 -5.278984451293950e+01 1 1 1
137 2 -3.911378383636470e+00 -1.007421112060550e+01 -5.277122116088870e+01 1 1 1
138 2 -3.668763875961300e+00 -9.627191543579100e+00 -5.255809402465820e+01 1 1 1
139 2 -3.546984434127810e+00 -9.306569099426270e+00 -5.222491836547850e+01 1 1 1
140 4 -3.532976627349850e+00 -9.147420883178709e+00 -5.165209197998050e+01 1 1 1
141 1 -3.388123035430910e+00 -9.192234992980961e+00 -5.111646652221680e+01 1 1 1
142 3 -3.199077606201170e+00 -9.482733726501460e+00 -5.070454788208010e+01 1 1 1
143 4 -2.820043325424190e+00 -9.810743331909180e+00 -5.038521957397460e+01 1 1 1
144 4 -2.396002531051640e+00 -1.001151943206790e+01 -5.037337112426760e+01 1 1 1
145 2 -1.844743490219120e+00 -1.008156013488770e+01 -5.038772583007810e+01 1 1 1
146 1 -1.311956644058230e+00 -9.876780509948730e+00 -5.031439590454100e+01 1 1 1
147 2 -9.962823390960690e-01 -9.474987983703610e+00 -5.011690902709960e+01 1 1 1
148 2 -8.169752955436710e-01 -9.062561988830570e+00 -4.972781753540040e+01 1 1 1
149 3 -8.483502268791200e-01 -8.839606285095210e+00 -4.926260757446290e+01 1 1 1
150 1 -9.937184453010560e-01 -8.910239219665529e+00 -4.863043594360350e+01 1 1 1
151 3 -9.516102075576780e-01 -9.104059219360350e+00 -4.813640975952150e+01 1 1 1
152 3 -7.990235686302189e-01 -9.328650474548340e+00 -4.767358779907230e+01 1 1 1
153 1 -4.984983503818510e-01 -9.776009559631349e+00 -4.750642776489260e+01 1 1 1
154 3 -1.086991578340530e-01 -1.012410068511960e+01 -4.742052459716800e+01 1 1 1
155 2  3.532060980796810e-01 -1.023818683624270e+01 -4.711085128784180e+01 1 1 1
156 4  7.741875648498540e-01 -1.012237167358400e+01 -4.677590179443360e+01 1 1 1
157 1  1.145873427391050e+00 -9.870128631591800e+00 -4.655332565307620e+01 1 1 1
158 2  1.384228706359860e+00 -9.541069030761721e+00 -4.628711318969730e+01 1 1 1
159 2  1.330059885978700e+00 -9.146656990051270e+00 -4.597841644287110e+01 1 1 1
160 2  1.139684438705440e+00 -8.919621467590330e+00 -4.542653656005860e+01 1 1 1
161 3  1.204493284225460e+00 -8.892845153808590e+00 -4.482805633544920e+01 1 1 1
162 1  1.243010163307190e+00 -9.112026214599609e+00 -4.435434341430660e+01 1 1 1
163 2  1.375197529792790e+00 -9.443596839904790e+00 -4.399599456787110e+01 1 1 1
164 2  1.662946701049800e+00 -9.792081832885740e+00 -4.379853439331050e+01 1 1 1
165 3  2.154633760452270e+00 -1.001135444641110e+01 -4.355571746826170e+01 1 1 1
166 4  2.587532997131350e+00 -1.003739833831790e+01 -4.326288604736330e+01 1 1 1
167 1  2.995330333709720e+00 -9.775812149047850e+00 -4.303937149047850e+01 1 1 1
168 1  3.252632856369020e+00 -9.396015167236330e+00 -4.278134536743160e+01 1 1 1
169 3  3.383909463882450e+00 -8.988246917724609e+00 -4.250057220458980e+01 1 1 1
170 1  3.403057336807250e+00 -8.642206192016600e+00 -4.210864257812500e+01 1 1 1
171 4  3.304414033889770e+00 -8.375280380249020e+00 -4.156329727172850e+01 1 1 1
172 2  3.173501491546630e+00 -8.483980178833010e+00 -4.102986907958980e+01 1 1 1
173 3  3.293263673782350e+00 -8.700430870056151e+00 -4.056475067138670e+01 1 1 1
174 1  3.512385606765750e+00 -8.967919349670410e+00 -4.011878585815430e+01 1 1 1
175 3  3.931199550628660e+00 -9.293412208557131e+00 -3.996559906005860e+01 1 1 1
176 2  4.418307304382320e+00 -9.388438224792480e+00 -3.982424163818360e+01 1 1 1
177 3  4.905893802642820e+00 -9.240139007568359e+00 -3.968789672851560e+01 1 1 1
178 1  5.310013771057130e+00 -8.838575363159180e+00 -3.936685943603520e+01 1 1 1
179 4  5.484108448028560e+00 -8.576936721801760e+00 -3.899592590332030e+01 1 1 1
180 3  5.519389152526860e+00 -8.390567779541019e+00 -3.843503952026370e+01 1 1 1
181 4  5.511246681213380e+00 -8.401520729064940e+00 -3.789321136474610e+01 1 1 1
182 2  5.353015422821040e+00 -8.567979812622070e+00 -3.743781280517580e+01 1 1 1
183 3  5.165781021118160e+00 -8.883900642395020e+00 -3.696619033813480e+01 1 1 1
184 3  5.134784221649170e+00 -9.388670921325680e+00 -3.675260925292970e+01 1 1 1
185 2  5.360955715179440e+00 -9.826602935791019e+00 -3.658700180053710e+01 1 1 1
186 1  5.699262142181400e+00 -1.013437843322750e+01 -3.628366470336910e+01 1 1 1
187 1  6.023403167724610e+00 -1.025598239898680e+01 -3.599234771728520e+01 1 1 1
188 3  6.472960948944090e+00 -1.017627906799320e+01 -3.566860198974610e+01 1 1 1
189 2  6.677332878112790e+00 -1.003168487548830e+01 -3.525886154174800e+01 1 1 1
190 3  6.803892612457280e+00 -9.995913505554199e+00 -3.471574783325200e+01 1 1 1
191 3  6.706743717193600e+00 -9.955975532531740e+00 -3.423073577880860e+01 1 1 1
192 2  6.433561801910400e+00 -9.999740600585939e+00 -3.380460739135740e+01 1 1 1
193 2  6.128113746643070e+00 -1.034705066680910e+01 -3.345636367797850e+01 1 1 1
194 3  5.907112121582030e+00 -1.078298854827880e+01 -3.322114944458010e+01 1 1 1
195 2  5.898129940032960e+00 -1.122107791900630e+01 -3.303126525878910e+01 1 1 1
196 4  6.086849689483640e+00 -1.163623142242430e+01 -3.266767120361330e+01 1 1 1
197 1  6.398319244384770e+00 -1.176240539550780e+01 -3.226181030273440e+01 1 1 1
198 3  6.880857944488530e+00 -1.159197044372560e+01 -3.198797035217290e+01 1 1 1
199 4  7.245438098907470e+00 -1.155727100372310e+01 -3.152410125732420e+01 1 1 1
200 1  7.444301605224610e+00 -1.133994579315190e+01 -3.102628898620610e+01 1 1 1
201 1  7.418900012969970e+00 -1.109601593017580e+01 -3.058358001708980e+01 1 1 1
202 2  7.046930313110350e+00 -1.094478607177730e+01 -3.004967308044430e+01 1 1 1
203 1  6.677546977996830e+00 -1.099515533447270e+01 -2.968265724182130e+01 1 1 1
204 3  6.497695922851560e+00 -1.138029003143310e+01 -2.928076744079590e+01 1 1 1
205 1  6.397904396057130e+00 -1.182326507568360e+01 -2.898535346984860e+01 1 1 1
206 1  6.591007709503170e+00 -1.222742748260500e+01 -2.879310035705570e+01 1 1 1
207 4  6.987003803253170e+00 -1.261054229736330e+01 -2.857209968566890e+01 1 1 1
208 4  7.290017127990720e+00 -1.277944087982180e+01 -2.814534759521480e+01 1 1 1
209 2  7.482697963714600e+00 -1.271218967437740e+01 -2.762398338317870e+01 1 1 1
210 3  7.563205242156980e+00 -1.237691688537600e+01 -2.720936012268070e+01 1 1 1
211 2  7.448082923889160e+00 -1.224868965148930e+01 -2.664592552185060e+01 1 1 1
212 1  7.135995388031010e+00 -1.210904216766360e+01 -2.623275375366210e+01 1 1 1
213 2  6.656150341033940e+00 -1.199239253997800e+01 -2.597389221191410e+01 1 1 1
214 3  6.116770744323730e+00 -1.208861827850340e+01 -2.591728782653810e+01 1 1 1
215 2  5.676911830902100e+00 -1.231241226196290e+01 -2.582619667053220e+01 1 1 1
216 4  5.347365856170650e+00 -1.268766784667970e+01 -2.558413696289060e+01 1 1 1
217 1  5.233180522918700e+00 -1.315131855010990e+01 -2.530413627624510e+01 1 1 1
218 2  5.134139537811280e+00 -1.344945812225340e+01 -2.486023712158200e+01 1 1 1
219 2  5.088424205780030e+00 -1.355536460876460e+01 -2.432423782348630e+01 1 1 1
220 4  5.145844459533690e+00 -1.350403118133540e+01 -2.390617179870610e+01 1 1 1
221 2  5.184111118316650e+00 -1.323967456817630e+01 -2.345081901550290e+01 1 1 1
222 1  5.109000682830810e+00 -1.289568138122560e+01 -2.306433677673340e+01 1 1 1
223 2  4.768037319183350e+00 -1.275271320343020e+01 -2.265914154052730e+01 1 1 1
224 3  4.261070728302000e+00 -1.280946731567380e+01 -2.246275901794430e+01 1 1 1
225 4  3.822699069976810e+00 -1.315459442138670e+01 -2.212960243225100e+01 1 1 1
226 2  3.611565589904790e+00 -1.365922737121580e+01 -2.213878822326660e+01 1 1 1
227 2  3.543218135833740e+00 -1.421408748626710e+01 -2.190732955932620e+01 1 1 1
228 1  3.587197542190550e+00 -1.462209033966060e+01 -2.150694465637210e+01 1 1 1
229 1  3.835897207260130e+00 -1.471313381195070e+01 -2.098182106018070e+01 1 1 1
230 1  3.779885292053220e+00 -1.460547542572020e+01 -2.046878623962400e+01 1 1 1
231 1  3.772446393966670e+00 -1.434960174560550e+01 -1.992615509033200e+01 1 1 1
232 1  3.681521415710450e+00 -1.394198799133300e+01 -1.965491485595700e+01 1 1 1
233 3  3.387703418731690e+00 -1.357907676696780e+01 -1.935564994812010e+01 1 1 1
234 4  2.892207860946660e+00 -1.340048599243160e+01 -1.913521766662600e+01 1 1 1
235 2  2.454612970352170e+00 -1.349168777465820e+01 -1.885741424560550e+01 1 1 1
236 2  2.220294952392580e+00 -1.374985218048100e+01 -1.844259452819820e+01 1 1 1
237 2  2.125329256057740e+00 -1.398114204406740e+01 -1.797960662841800e+01 1 1 1
238 1  2.276299953460690e+00 -1.442063903808590e+01 -1.767910194396970e+01 1 1 1
239 1  2.592822074890140e+00 -1.462686347961430e+01 -1.727036857604980e+01 1 1 1
240 4  3.008154153823850e+00 -1.466420173645020e+01 -1.710441207885740e+01 1 1 1
241 3  3.286715269088750e+00 -1.471958827972410e+01 -1.658630180358890e+01 1 1 1
242 2  3.583837747573850e+00 -1.443091011047360e+01 -1.618346786499020e+01 1 1 1
243 1  3.562241315841670e+00 -1.414749336242680e+01 -1.573668479919430e+01 1 1 1
244 2  3.391557455062870e+00 -1.397211551666260e+01 -1.522801876068120e+01 1 1 1
245 3  2.994633913040160e+00 -1.394375610351560e+01 -1.485948944091800e+01 1 1 1
246 3  2.769071578979490e+00 -1.411765766143800e+01 -1.441944217681880e+01 1 1 1
247 1  2.638166427612300e+00 -1.447823047637940e+01 -1.408407974243160e+01 1 1 1
248 2  2.599903106689450e+00 -1.487632179260250e+01 -1.374158096313480e+01 1 1 1
249 2  2.815139055252080e+00 -1.527728176116940e+01 -1.339400959014890e+01 1 1 1
250 3  3.036866903305050e+00 -1.553492641448970e+01 -1.303279399871830e+01 1 1 1
251 1  3.438205242156980e+00 -1.561264610290530e+01 -1.274642562866210e+01 1 1 1
252 3  3.846146345138550e+00 -1.569947624206540e+01 -1.233924579620360e+01 1 1 1
253 1  4.059803962707520e+00 -1.550996017456050e+01 -1.199723052978520e+01 1 1 1
254 1  4.072346210479740e+00 -1.534826946258540e+01 -1.143830585479740e+01 1 1 1
255 1  3.906500577926640e+00 -1.513570022583010e+01 -1.095061969757080e+01 1 1 1
256 4  3.522847414016720e+00 -1.503327274322510e+01 -1.060003948211670e+01 1 1 1
257 3  3.134721279144290e+00 -1.512892818450930e+01 -1.025493431091310e+01 1 1 1
258 3  2.920379161834720e+00 -1.540008068084720e+01 -9.882392883300779e+00 1 1 1
259 1  2.928679943084720e+00 -1.583605098724370e+01 -9.642915725708010e+00 1 1 1
260 2  3.080145597457890e+00 -1.615459823608400e+01 -9.254590988159180e+00 1 1 1
261 3  3.140041112899780e+00 -1.625181007385250e+01 -8.638671875000000e+00 1 1 1
262 4  3.184470653533940e+00 -1.619543075561520e+01 -8.111197471618651e+00 1 1 1
263 1  3.038194894790650e+00 -1.583780860900880e+01 -7.701409339904790e+00 1 1 1
264 4  2.803344964981080e+00 -1.549152946472170e+01 -7.327321052551270e+00 1 1 1
265 3  2.473615407943730e+00 -1.507074928283690e+01 -7.221124172210690e+00 1 1 1
266 2  2.022901535034180e+00 -1.481046962738040e+01 -7.192091464996340e+00 1 1 1
267 2  1.472361445426940e+00 -1.463379764556880e+01 -7.134341716766360e+00 1 1 1
268 1  9.470558166503910e-01 -1.475302314758300e+01 -7.096547603607180e+00 1 1 1
269 1  5.563142895698550e-01 -1.499774265289310e+01 -6.877011299133300e+00 1 1 1
270 4  3.598534166812900e-01 -1.523654365539550e+01 -6.563401222229000e+00 1 1 1
271 1  2.062725126743320e-01 -1.536251354217530e+01 -6.136934280395510e+00 1 1 1
272 2  1.417204141616820e-01 -1.538922023773190e+01 -5.601592063903810e+00 1 1 1
273 4  1.589250378310680e-02 -1.520648765563960e+01 -5.165421009063720e+00 1 1 1
274 1 -1.195133626461030e-01 -1.495495223999020e+01 -4.850161075592040e+00 1 1 1
275 2 -2.333409786224370e-01 -1.453126716613770e+01 -4.638018608093260e+00 1 1 1
276 2 -5.769109725952150e-01 -1.419525432586670e+01 -4.512568950653080e+00 1 1 1
277 2 -1.087495565414430e+00 -1.399410343170170e+01 -4.377418041229250e+00 1 1 1
278 2 -1.587980270385740e+00 -1.398145008087160e+01 -4.132171630859380e+00 1 1 1
279 4 -2.063049554824830e+00 -1.410954380035400e+01 -3.816226005554200e+00 1 1 1
280 1 -2.414553165435790e+00 -1.439114475250240e+01 -3.476898431777950e+00 1 1 1
281 1 -2.460959911346440e+00 -1.469432449340820e+01 -3.033930778503420e+00 1 1 1
282 2 -2.418478250503540e+00 -1.490488529205320e+01 -2.592438697814940e+00 1 1 1
283 3 -2.297043085098270e+00 -1.494407939910890e+01 -2.107661962509160e+00 1 1 1
284 3 -2.275667667388920e+00 -1.473306846618650e+01 -1.619857668876650e+00 1 1 1
285 2 -2.359509944915770e+00 -1.440924739837650e+01 -1.295801639556880e+00 1 1 1
286 1 -2.708124399185180e+00 -1.403276920318600e+01 -9.735820889472960e-01 1 1 1
287 1 -3.107132673263550e+00 -1.364216327667240e+01 -8.386699557304380e-01 1 1 1
288 4 -3.648786783218380e+00 -1.347266483306880e+01 -7.992458939552310e-01 1 1 1
289 4 -4.182861804962160e+00 -1.351856994628910e+01 -7.865855097770690e-01 1 1 1
290 2 -4.695197582244870e+00 -1.376502132415770e+01 -6.494826674461360e-01 1 1 1
291 4 -5.019221305847170e+00 -1.415102291107180e+01 -4.195341169834140e-01 1 1 1
292 4 -5.195709228515620e+00 -1.445727157592770e+01 -2.617768757045270e-02 1 1 1
293 1 -5.352949142456050e+00 -1.435892963409420e+01  5.364770293235780e-01 1 1 1
294 2 -5.593737125396730e+00 -1.416181945800780e+01  9.731004834175110e-01 1 1 1
295 1 -5.837557315826420e+00 -1.394791412353520e+01  1.372963309288020e+00 1 1 1
296 4 -6.090006828308110e+00 -1.353348541259770e+01  1.592861890792850e+00 1 1 1
297 4 -6.376147270202640e+00 -1.305117511749270e+01  1.578541040420530e+00 1 1 1
298 1 -6.906291961669920e+00 -1.272412109375000e+01  1.606581807136540e+00 1 1 1
299 2 -7.383121490478520e+00 -1.266656112670900e+01  1.655217409133910e+00 1 1 1
300 4 -7.877829551696780e+00 -1.283243656158450e+01  1.620684862136840e+00 1 1 1
301 1 -8.202398300170900e+00 -1.320510673522950e+01  1.578382134437560e+00 1 1 1
302 1 -8.520868301391600e+00 -1.364395427703860e+01  1.741106867790220e+00 1 1 1
303 4 -8.841830253601071e+00 -1.398639583587650e+01  2.060212850570680e+00 1 1 1
304 3 -9.100177764892580e+00 -1.413105106353760e+01  2.502615928649900e+00 1 1 1
305 1 -9.506592750549320e+00 -1.406959152221680e+01  2.821451902389530e+00 1 1 1
306 2 -9.798551559448240e+00 -1.384344196319580e+01  3.114114522933960e+00 1 1 1
307 4 -1.013630485534670e+01 -1.343232154846190e+01  3.313945293426510e+00 1 1 1
308 2 -1.050234508514400e+01 -1.310922718048100e+01  3.276157379150390e+00 1 1 1
309 2 -1.102175521850590e+01 -1.288742828369140e+01  3.109941959381100e+00 1 1 1
310 2 -1.150172519683840e+01 -1.290545654296880e+01  2.889743804931640e+00 1 1 1
311 4 -1.190584468841550e+01 -1.316667747497560e+01  2.750670671463010e+00 1 1 1
312 1 -1.239295673370360e+01 -1.341268253326420e+01  2.820874691009520e+00 1 1 1
313 1 -1.283767509460450e+01 -1.364813232421880e+01  3.139381647109990e+00 1 1 1
314 4 -1.319672584533690e+01 -1.369101047515870e+01  3.611968755722050e+00 1 1 1
315 3 -1.343127536773680e+01 -1.349521541595460e+01  4.171522140502930e+00 1 1 1
316 3 -1.372664165496830e+01 -1.309281826019290e+01  4.389605998992920e+00 1 1 1
317 1 -1.399180316925050e+01 -1.259736347198490e+01  4.324769020080570e+00 1 1 1
318 2 -1.437403964996340e+01 -1.230421829223630e+01  4.165726184844970e+00 1 1 1
319 2 -1.482856178283690e+01 -1.225990009307860e+01  3.845152616500850e+00 1 1 1
320 2 -1.536455249786380e+01 -1.239337539672850e+01  3.830089092254640e+00 1 1 1
321 4 -1.578089237213130e+01 -1.273950099945070e+01  3.770226478576660e+00 1 1 1
322 1 -1.614412689208980e+01 -1.309263515472410e+01  4.003521919250490e+00 1 1 1
323 1 -1.643148231506350e+01 -1.325397396087650e+01  4.371082305908200e+00 1 1 1
324 3 -1.672306632995610e+01 -1.329036235809330e+01  4.811697959899900e+00 1 1 1
325 2 -1.713598442077640e+01 -1.317502117156980e+01  5.183796882629390e+00 1 1 1
326 3 -1.754108238220210e+01 -1.287118625640870e+01  5.443869590759280e+00 1 1 1
327 2 -1.785211563110350e+01 -1.239115524291990e+01  5.471311569213870e+00 1 1 1
328 4 -1.813407897949220e+01 -1.200603675842290e+01  5.362913131713870e+00 1 1 1
329 1 -1.859855842590330e+01 -1.175908565521240e+01  5.276049137115480e+00 1 1 1
330 1 -1.904138565063480e+01 -1.171571636199950e+01  5.142085552215580e+00 1 1 1
331 2 -1.953969955444340e+01 -1.188854503631590e+01  4.887286663055420e+00 1 1 1
332 3 -2.006927490234380e+01 -1.206968116760250e+01  4.918620586395260e+00 1 1 1
333 3 -2.039810371398930e+01 -1.230813598632810e+01  5.144462108612060e+00 1 1 1
334 2 -2.085223770141600e+01 -1.242995834350590e+01  5.456073284149170e+00 1 1 1
335 3 -2.110357475280760e+01 -1.237829399108890e+01  5.860817909240720e+00 1 1 1
336 4 -2.134137344360350e+01 -1.209710121154790e+01  6.214335918426510e+00 1 1 1
337 4 -2.145481872558590e+01 -1.159036159515380e+01  6.497496128082280e+00 1 1 1
338 2 -2.183803939819340e+01 -1.113862609863280e+01  6.571739196777340e+00 1 1 1
339 1 -2.214225387573240e+01 -1.075410556793210e+01  6.489206314086910e+00 1 1 1
340 1 -2.253803443908690e+01 -1.053651618957520e+01  6.208003044128420e+00 1 1 1
341 2 -2.298723030090330e+01 -1.045262622833250e+01  5.956403255462650e+00 1 1 1
342 3 -2.354565048217770e+01 -1.056963729858400e+01  5.877342224121090e+00 1 1 1
343 1 -2.410174179077150e+01 -1.039012718200680e+01  5.985763072967530e+00 1 1 1
344 3 -2.446760368347170e+01 -1.040467166900630e+01  6.311253070831300e+00 1 1 1
345 4 -2.473827171325680e+01 -1.036250400543210e+01  6.836971759796140e+00 1 1 1
346 4 -2.485535240173340e+01 -1.011489868164060e+01  7.264774322509770e+00 1 1 1
347 3 -2.488570213317870e+01 -9.678955078125000e+00  7.539129257202150e+00 1 1 1
348 1 -2.487286186218260e+01 -9.159409523010250e+00  7.867335796356200e+00 1 1 1
349 4 -2.489194297790530e+01 -8.624454498291019e+00  7.823051929473880e+00 1 1 1
350 4 -2.512001037597660e+01 -8.173320770263670e+00  7.728744983673100e+00 1 1 1
351 2 -2.550650405883790e+01 -7.883790493011470e+00  7.491281032562260e+00 1 1 1
352 2 -2.600019264221190e+01 -7.622423648834230e+00  7.405175209045410e+00 1 1 1
353 3 -2.650443840026860e+01 -7.486447811126710e+00  7.560686588287350e+00 1 1 1
354 1 -2.689002609252930e+01 -7.288644790649410e+00  7.930121421813960e+00 1 1 1
355 3 -2.706740570068360e+01 -7.072725772857670e+00  8.268121719360350e+00 1 1 1
356 1 -2.701253128051760e+01 -6.850110530853270e+00  8.799131393432621e+00 1 1 1
357 2 -2.681421279907230e+01 -6.569150924682620e+00  9.136363983154300e+00 1 1 1
358 3 -2.637482070922850e+01 -6.209284782409670e+00  9.367037773132321e+00 1 1 1
359 1 -2.617644119262700e+01 -5.728103637695310e+00  9.408995628356930e+00 1 1 1
360 1 -2.613997840881350e+01 -5.193543434143070e+00  9.350072860717770e+00 1 1 1
361 1 -2.637193489074710e+01 -4.671071052551270e+00  9.262183189392090e+00 1 1 1
362 1 -2.672442817687990e+01 -4.119087219238280e+00  9.382892608642580e+00 1 1 1
363 2 -2.699172973632810e+01 -3.843567848205570e+00  9.777475357055661e+00 1 1 1
364 2 -2.699982643127440e+01 -3.610940456390380e+00  1.019213008880620e+01 1 1 1
365 3 -2.678276062011720e+01 -3.378458261489870e+00  1.068426132202150e+01 1 1 1
366 3 -2.642413711547850e+01 -3.185236692428590e+00  1.104088115692140e+01 1 1 1
367 3 -2.592683219909670e+01 -3.186446189880370e+00  1.114647006988530e+01 1 1 1