ITEM: TIMESTEP
0
ITEM: NUMBER OF ATOMS
10
ITEM: BOX BOUNDS pp pp pp
-2.0000000000000000e+01 2.0000000000000000e+01
-2.0000000000000000e+01 2.0000000000000000e+01
-2.0000000000000000e+01 2.0000000000000000e+01
ITEM: ATOMS id mol type x y z ix iy iz vx vy vz c_quat[1] c_quat[2] c_quat[3] c_quat[4] angmomx angmomy angmomz 
1 1 1 -6.000000e-01  0.000000e+00  0.000000e+00 0 0 0  0.000000e+00  0.000000e+00  0.000000e+00  1.000000e+00  0.000000e+00  0.000000e+00  0.000000e+00  0.000000e+00  0.000000e+00  0.000000e+00 
2 1 2 -4.860250e-01 -3.518234e-01  3.897629e-01 0 0 0  0.000000e+00  0.000000e+00  0.000000e+00  9.513258e-01  0.000000e+00  0.000000e+00  3.081869e-01  0.000000e+00  0.000000e+00  0.000000e+00 
3 1 3 -1.874010e-01 -5.699832e-01  7.795257e-01 0 0 0  0.000000e+00  0.000000e+00  0.000000e+00  8.100416e-01  0.000000e+00  0.000000e+00  5.863724e-01  0.000000e+00  0.000000e+00  0.000000e+00 
4 1 4  1.824198e-01 -5.715969e-01  1.169289e+00 0 0 0  0.000000e+00  0.000000e+00  0.000000e+00  5.899012e-01  0.000000e+00  0.000000e+00  8.074754e-01  0.000000e+00  0.000000e+00  0.000000e+00 
5 1 1  4.829363e-01 -3.560513e-01  1.559051e+00 0 0 0  0.000000e+00  0.000000e+00  0.000000e+00  3.123349e-01  0.000000e+00  0.000000e+00  9.499721e-01  0.000000e+00  0.000000e+00  0.000000e+00 
6 2 4 -4.829363e-01  3.560513e-01  1.559051e+00 0 0 0  0.000000e+00  0.000000e+00  0.000000e+00  0.000000e+00  9.499721e-01 -3.123349e-01 -0.000000e+00  0.000000e+00  0.000000e+00  0.000000e+00 
7 2 1 -1.824198e-01  5.715969e-01  1.169289e+00 0 0 0  0.000000e+00  0.000000e+00  0.000000e+00  0.000000e+00  8.074754e-01 -5.899012e-01  0.000000e+00  0.000000e+00  0.000000e+00  0.000000e+00 
8 2 2  1.874010e-01  5.699832e-01  7.795257e-01 0 0 0  0.000000e+00  0.000000e+00  0.000000e+00  0.000000e+00  5.863724e-01 -8.100416e-01  0.000000e+00  0.000000e+00  0.000000e+00  0.000000e+00 
9 2 3  4.860250e-01  3.518234e-01  3.897629e-01 0 0 0  0.000000e+00  0.000000e+00  0.000000e+00 -0.000000e+00 -3.081869e-01  9.513258e-01  0.000000e+00  0.000000e+00  0.000000e+00  0.000000e+00 
10 2 4  6.000000e-01 -1.332268e-16 -1.110223e-16 0 0 0  0.000000e+00  0.000000e+00  0.000000e+00 -0.000000e+00  1.110223e-16  1.000000e+00 -0.000000e+00  0.000000e+00  0.000000e+00  0.000000e+00 
ITEM: TIMESTEP
1000
ITEM: NUMBER OF ATOMS
10
ITEM: BOX BOUNDS pp pp pp
-2.0000000000000000e+01 2.0000000000000000e+01
-2.0000000000000000e+01 2.0000000000000000e+01
-2.0000000000000000e+01 2.0000000000000000e+01
ITEM: ATOMS id mol type x y z ix iy iz vx vy vz c_quat[1] c_quat[2] c_quat[3] c_quat[4] angmomx angmomy angmomz 
1 1 1 -6.206745e-01 -7.341922e-03  1.393449e-02 0 0 0  2.147837e-01  6.037397e-01 -6.590020e-02  9.998846e-01 -7.767928e-03 -1.105895e-02  6.943184e-03  1.833695e-01 -1.977729e-01  9.470785e-02 
2 1 2 -4.713166e-01 -3.548160e-01  3.672985e-01 0 0 0 -2.706760e-02 -2.125356e-01 -4.852711e-01  9.513754e-01  1.103454e-02 -1.723246e-02  3.073535e-01  1.115240e-01 -2.094897e-01  6.178345e-02 
3 1 3 -2.007959e-01 -5.626704e-01  7.817421e-01 0 0 0 -3.455054e-02  1.982204e-01  2.968482e-01  8.105252e-01  2.524460e-03  5.411235e-03  5.856733e-01  2.953650e-01 -7.634893e-02 -4.300602e-01 
4 1 4  1.851863e-01 -5.884412e-01  1.197031e+00 0 0 0 -1.445238e-01 -1.608553e-01  7.306186e-02  5.831411e-01 -1.290552e-02 -5.569553e-03  8.122492e-01  2.648043e-01 -1.798733e-01 -3.848661e-01 
5 1 1  4.458633e-01 -3.369280e-01  1.586218e+00 0 0 0  1.447860e-02 -4.177978e-01  2.833485e-01  3.219570e-01 -1.913483e-02 -2.277262e-02  9.462869e-01  5.640816e-02 -2.464951e-01 -1.947128e-01 
6 2 4 -5.169190e-01  3.945322e-01  1.581381e+00 0 0 0  1.472438e-01 -4.953655e-02 -8.038539e-02 -8.743899e-03  9.451807e-01 -3.264111e-01  3.586940e-03 -4.076686e-01  2.477626e-01  1.562523e-01 
7 2 1 -1.880919e-01  5.597132e-01  1.182507e+00 0 0 0  3.204433e-01  1.215483e-01  1.795365e-01  1.219457e-02  8.122384e-01 -5.831774e-01  4.908664e-03  2.553807e-01 -3.565752e-01  2.008214e-01 
8 2 2  2.069421e-01  5.738961e-01  7.548684e-01 0 0 0 -1.809864e-01 -2.011030e-01  4.234349e-02  2.718388e-02  5.834076e-01 -8.117193e-01  2.890824e-03  2.920441e-01 -1.270450e-01  5.287195e-02 
9 2 3  4.661121e-01  3.764397e-01  3.887213e-01 0 0 0  2.382030e-01  6.485616e-03  7.580202e-02 -9.482087e-04 -3.017152e-01  9.533957e-01  1.937945e-03 -3.317839e-01  4.307820e-01 -6.892417e-03 
10 2 4  5.766032e-01  4.003273e-02 -8.312369e-03 0 0 0  7.273790e-02 -1.936237e-01 -4.265905e-01  5.912537e-03 -1.154920e-02  9.998348e-01  1.272901e-02  1.639609e-02 -3.839874e-01 -1.413690e-01 
ITEM: TIMESTEP
2000
ITEM: NUMBER OF ATOMS
10
ITEM: BOX BOUNDS pp pp pp
-2.0000000000000000e+01 2.0000000000000000e+01
-2.0000000000000000e+01 2.0000000000000000e+01
-2.0000000000000000e+01 2.0000000000000000e+01
ITEM: ATOMS id mol type x y z ix iy iz vx vy vz c_quat[1] c_quat[2] c_quat[3] c_quat[4] angmomx angmomy angmomz 
1 1 1 -6.082365e-01  1.056753e-02  8.974084e-03 0 0 0 -2.022378e-01 -2.483181e-02 -7.369929e-02  9.999539e-01 -7.765320e-03 -3.603876e-03  4.352407e-03 -1.260940e-02 -9.129709e-02 -3.081079e-01 
2 1 2 -4.854960e-01 -3.350784e-01  3.472254e-01 0 0 0  1.572448e-01 -9.380799e-02 -7.593610e-02  9.426647e-01 -7.377568e-03 -3.306926e-02  3.320170e-01 -1.329550e-01 -1.322522e-01  3.297130e-02 
3 1 3 -2.083705e-01 -5.863110e-01  7.447501e-01 0 0 0 -2.623326e-01 -6.074142e-02 -4.507158e-01  8.138464e-01  1.922361e-02 -1.035021e-02  5.806698e-01  3.405008e-01 -1.394235e-01  1.605809e-01 
4 1 4  1.669921e-01 -5.448773e-01  1.185277e+00 0 0 0  7.629312e-03  6.244799e-02 -1.256855e-01  5.690158e-01 -2.754876e-02 -9.756479e-03  8.218071e-01  2.141125e-02  1.103851e-01 -4.417037e-01 
5 1 1  4.282066e-01 -3.670925e-01  1.617213e+00 0 0 0 -8.694557e-02  1.269362e-01 -2.154521e-01  3.365079e-01 -1.544667e-02 -1.323418e-02  9.414609e-01 -1.666513e-01  3.586218e-02  1.571958e-01 
6 2 4 -4.841922e-01  3.932288e-01  1.618694e+00 0 0 0 -5.068246e-02  1.074087e-02  8.682704e-02 -1.165998e-02  9.435888e-01 -3.304718e-01 -1.710729e-02 -1.885704e-01 -9.062946e-02  7.514337e-03 
7 2 1 -1.588353e-01  5.569324e-01  1.160444e+00 0 0 0 -9.564082e-02  1.862949e-01  9.629403e-02 -2.797771e-03  8.150410e-01 -5.793711e-01 -5.426107e-03 -5.425827e-02 -1.524025e-01  2.353541e-01 
8 2 2  1.897869e-01  5.402151e-01  7.612978e-01 0 0 0  4.215607e-02 -3.604700e-01 -4.616876e-02  3.369778e-02  5.968066e-01 -8.016600e-01  5.244550e-03  7.317613e-02  6.695537e-02 -4.720064e-01 
9 2 3  4.704858e-01  3.661835e-01  3.773151e-01 0 0 0  1.149858e-01  5.162586e-02 -1.209442e-01 -1.852672e-02 -2.899404e-01  9.568594e-01  3.387349e-03 -8.170411e-02  2.082656e-01  9.057217e-02 
10 2 4  5.903423e-01  3.989947e-02  1.390272e-02 0 0 0  9.368299e-02  1.264365e-01  2.705021e-01  4.501539e-03 -3.326385e-03  9.999450e-01  8.871557e-03  1.948953e-01 -5.039939e-02  2.383964e-02 
ITEM: TIMESTEP
3000
ITEM: NUMBER OF ATOMS
10
ITEM: BOX BOUNDS pp pp pp
-2.0000000000000000e+01 2.0000000000000000e+01
-2.0000000000000000e+01 2.0000000000000000e+01
-2.0000000000000000e+01 2.0000000000000000e+01
ITEM: ATOMS id mol type x y z ix iy iz vx vy vz c_quat[1] c_quat[2] c_quat[3] c_quat[4] angmomx angmomy angmomz 
1 1 1 -5.772089e-01  3.312300e-02 -3.285626e-02 0 0 0 -9.291428e-02 -4.242906e-02 -1.003109e-01  9.994856e-01 -1.088747e-03 -2.598319e-02 -1.876673e-02  2.396316e-01 -1.730140e-01  3.491632e-01 
2 1 2 -4.684989e-01 -3.631028e-01  3.519092e-01 0 0 0  1.653562e-01  3.121405e-01 -2.773805e-01  9.403570e-01 -1.845283e-02 -3.929001e-02  3.374084e-01 -2.978300e-01 -1.160512e-01 -4.150286e-02 
3 1 3 -1.714985e-01 -6.011149e-01  7.449305e-01 0 0 0 -1.039989e-01  1.117332e-02  7.752713e-02  8.139835e-01  8.585262e-03 -7.831163e-03  5.807718e-01 -4.285907e-01  3.247509e-01  3.448309e-01 
4 1 4  1.666116e-01 -5.665470e-01  1.184936e+00 0 0 0  7.749493e-02 -2.017081e-02  7.628217e-02  5.593834e-01 -2.325822e-02 -1.481940e-02  8.284502e-01  1.734693e-01 -8.185616e-02 -1.012293e-01 
5 1 1  4.657894e-01 -3.746411e-01  1.616680e+00 0 0 0 -2.800893e-01  3.355425e-01 -1.496551e-01  3.366382e-01 -3.429423e-03 -2.355689e-02  9.413331e-01 -1.531641e-01  1.594746e-01 -3.733172e-01 
6 2 4 -4.580434e-01  4.010433e-01  1.618218e+00 0 0 0  1.308152e-01 -2.108334e-01 -3.950438e-02 -1.093303e-02  9.446074e-01 -3.268607e-01 -2.755589e-02  4.441670e-02 -8.803352e-03  9.414945e-02 
7 2 1 -1.700776e-01  5.315415e-01  1.183220e+00 0 0 0  2.257873e-01  3.566710e-02  2.905919e-01  5.424900e-03  8.134009e-01 -5.815146e-01 -1.379147e-02  1.032940e-01  1.370246e-01 -3.786734e-02 
8 2 2  1.149308e-01  5.384025e-01  7.160522e-01 0 0 0 -8.816323e-02  5.217289e-02 -1.867060e-01  5.409220e-02  6.016125e-01 -7.965305e-01  2.599309e-02 -1.631226e-01  2.925594e-01 -9.788800e-03 
9 2 3  4.605366e-01  3.784465e-01  3.716091e-01 0 0 0  4.628755e-02  1.129887e-01  3.612842e-02 -2.087334e-02 -2.919630e-01  9.561504e-01 -9.918724e-03 -5.900887e-02 -1.732178e-01  2.811826e-01 
10 2 4  6.430251e-01  1.435737e-02  9.728770e-03 0 0 0 -8.019999e-02 -1.375794e-01  3.394126e-01  1.059089e-02 -1.357198e-02  9.998518e-01  3.289133e-04  3.936575e-01  3.239109e-02 -6.986641e-02 
